
  ___ ___ ___ _ _ _  
 |   |   |_  | | | | 
 | | | | | . | | | | 
 |__ |  _|___|_____|  25.7.0
 |___|_|             

User:   luis-ochoa@luis-pc
Date:   Sat May  9 07:27:41 2026
Arch:   x86_64
Pid:    101805
CWD:    /home/luis-ochoa/Documents/Vscode/py/dft
Python: 3.12.3
gpaw:   /home/luis-ochoa/Documents/Vscode/py/dft/.venv/lib/python3.12/site-packages/gpaw
_gpaw:  /home/luis-ochoa/Documents/Vscode/py/dft/.venv/lib/python3.12/site-packages/
        _gpaw.cpython-312-x86_64-linux-gnu.so
ase:    /home/luis-ochoa/Documents/Vscode/py/dft/.venv/lib/python3.12/site-packages/ase (version 3.28.0)
numpy:  /home/luis-ochoa/Documents/Vscode/py/dft/.venv/lib/python3.12/site-packages/numpy (version 2.4.4)
scipy:  /home/luis-ochoa/Documents/Vscode/py/dft/.venv/lib/python3.12/site-packages/scipy (version 1.17.1)
libxc:  5.2.3
units:  Angstrom and eV
cores: 7
OpenMP: False
OMP_NUM_THREADS: 1

Reading from /home/luis-ochoa/Documents/Vscode/py/dft/calculations/top8_pbe/FASnI3/02_scf/scf.gpw
Read dipole, energy, free_energy, magmom, magmoms
Reading input parameters:
  convergence: {bands: occupied,
                density: 0.0001,
                eigenstates: 4e-08,
                energy: 1e-08}
  kpts: {gamma: True,
         size: [4, 4, 4]}
  mixer: {backend: pulay,
          beta: 0.05,
          method: separate,
          nmaxold: 5,
          weight: 50.0}
  mode: {ecut: 450.00000000000006,
         name: pw}
  symmetry: off
  xc: PBE

Initialize ...

species:
  Sn:
    name: Tin
    id: d1329c6b410f1e0bd923643368775dcd
    Z: 50.0
    valence: 14
    core: 36
    charge: 0.0
    file: /home/luis-ochoa/.gpaw/gpaw-setups-24.11.0/Sn.PBE.gz
    compensation charges: {type: gauss,
                           rc: 0.38,
                           lmax: 2}
    cutoffs: {filter: 2.23,
              core: 2.35}
    projectors:
      #              energy  rcut
      - 5s(2.00)   -10.538   1.201
      - 5p(2.00)    -3.696   1.270
      - 4d(10.00)   -25.845   1.185
      -  s          16.674   1.201
      -  p          23.515   1.270
      -  d           1.367   1.185
  
    # Using partial waves for Sn as LCAO basis

  I:
    name: Iodine
    id: 91405a398e4dfe788ff04f57531604ec
    Z: 53.0
    valence: 7
    core: 46
    charge: 0.0
    file: /home/luis-ochoa/.gpaw/gpaw-setups-24.11.0/I.PBE.gz
    compensation charges: {type: gauss,
                           rc: 0.37,
                           lmax: 2}
    cutoffs: {filter: 2.06,
              core: 2.90}
    projectors:
      #              energy  rcut
      - 5s(2.00)   -17.382   1.164
      - 5p(5.00)    -7.088   1.164
      -  s           9.829   1.164
      -  p          20.123   1.164
      -  d           0.000   1.164
  
    # Using partial waves for I as LCAO basis

  C:
    name: Carbon
    id: 4aa54d4b901d75f77cc0ea3eec22967b
    Z: 6.0
    valence: 4
    core: 2
    charge: 0.0
    file: /home/luis-ochoa/.gpaw/gpaw-setups-24.11.0/C.PBE.gz
    compensation charges: {type: gauss,
                           rc: 0.20,
                           lmax: 2}
    cutoffs: {filter: 1.14,
              core: 1.14}
    projectors:
      #              energy  rcut
      - 2s(2.00)   -13.751   0.635
      - 2p(2.00)    -5.284   0.635
      -  s          13.461   0.635
      -  p          21.927   0.635
      -  d           0.000   0.635
  
    # Using partial waves for C as LCAO basis

  N:
    name: Nitrogen
    id: f7500608b86eaa90eef8b1d9a670dc53
    Z: 7.0
    valence: 5
    core: 2
    charge: 0.0
    file: /home/luis-ochoa/.gpaw/gpaw-setups-24.11.0/N.PBE.gz
    compensation charges: {type: gauss,
                           rc: 0.18,
                           lmax: 2}
    cutoffs: {filter: 1.11,
              core: 0.96}
    projectors:
      #              energy  rcut
      - 2s(2.00)   -18.583   0.603
      - 2p(3.00)    -7.089   0.529
      -  s           8.629   0.603
      -  p          20.123   0.529
      -  d           0.000   0.577
  
    # Using partial waves for N as LCAO basis

  H:
    name: Hydrogen
    id: d65de229564ff8ea4db303e23b6d1ecf
    Z: 1.0
    valence: 1
    core: 0
    charge: 0.0
    file: /home/luis-ochoa/.gpaw/gpaw-setups-24.11.0/H.PBE.gz
    compensation charges: {type: gauss,
                           rc: 0.15,
                           lmax: 2}
    cutoffs: {filter: 0.85,
              core: 0.53}
    projectors:
      #              energy  rcut
      - 1s(1.00)    -6.494   0.476
      -  s          20.717   0.476
      -  p           0.000   0.476
  
    # Using partial waves for H as LCAO basis

Reference energy: -752686.602241  # eV

Spin-paired calculation

Convergence criteria:
 Maximum [total energy] change in last 3 cyles: 1e-08 eV / valence electron
 Maximum integral of absolute [dens]ity change: 0.0001 electrons / valence electron
 Maximum integral of absolute [eigenst]ate change: 4e-08 eV^2 / valence electron
 Maximum number of scf [iter]ations: 333
 (Square brackets indicate name in SCF output, whereas a 'c' in
 the SCF output indicates the quantity has converged.)

Symmetries present (total): 1

  ( 1  0  0)
  ( 0  1  0)
  ( 0  0  1)

64 k-points: 4 x 4 x 4 Monkhorst-Pack grid + [1/8,1/8,1/8]
64 k-points in the irreducible part of the Brillouin zone
       k-points in crystal coordinates                weights
   0:    -0.25000000   -0.25000000   -0.25000000          1/64
   1:    -0.25000000   -0.25000000    0.00000000          1/64
   2:    -0.25000000   -0.25000000    0.25000000          1/64
   3:    -0.25000000   -0.25000000    0.50000000          1/64
   4:    -0.25000000    0.00000000   -0.25000000          1/64
   5:    -0.25000000    0.00000000    0.00000000          1/64
   6:    -0.25000000    0.00000000    0.25000000          1/64
   7:    -0.25000000    0.00000000    0.50000000          1/64
   8:    -0.25000000    0.25000000   -0.25000000          1/64
   9:    -0.25000000    0.25000000    0.00000000          1/64
          ...
  63:     0.50000000    0.50000000    0.50000000          1/64

Wave functions: Plane wave expansion
  Cutoff energy: 450.000 eV
  Number of coefficients (min, max): 5406, 5520
  Pulay-stress correction: 0.000000 eV/Ang^3 (de/decut=0.000000)
  Using Numpy's FFT
  ScaLapack parameters: grid=1x1, blocksize=None
  Wavefunction extrapolation:
    Improved wavefunction reuse through dual PAW basis 

Occupation numbers: Fermi-Dirac:
  width: 0.1000  # eV
 

Eigensolver
   Davidson(niter=2) 

Densities:
  Coarse grid: 32*32*32 grid
  Fine grid: 64*64*64 grid
  Total Charge: 0.000000 

Density mixing:
  Method: separate
  Backend: pulay
  Linear mixing parameter: 0.05
  old densities: 5
  Damping of long wavelength oscillations: 50 

Hamiltonian:
  XC and Coulomb potentials evaluated on a 64*64*64 grid
  Using the PBE Exchange-Correlation functional
  External potential:
    NoExternalPotential
 

XC parameters: PBE with 2 nearest neighbor stencil

Memory estimate:
  Process memory now: 725.26 MiB
  Calculator: 71.96 MiB
    Density: 20.62 MiB
      Arrays: 6.50 MiB
      Localized functions: 11.62 MiB
      Mixer: 2.50 MiB
    Hamiltonian: 4.61 MiB
      Arrays: 4.25 MiB
      XC: 0.00 MiB
      Poisson: 0.00 MiB
      vbar: 0.36 MiB
    Wavefunctions: 46.74 MiB
      Arrays psit_nG: 28.05 MiB
      Eigensolver: 3.75 MiB
      Projections: 0.61 MiB
      Projectors: 12.32 MiB
      PW-descriptor: 2.01 MiB

Total number of cores used: 7
Parallelization over k-points: 7

Number of atoms: 12
Number of atomic orbitals: 38
Number of bands in calculation: 37
Number of valence electrons: 54
Bands to converge: occupied

... initialized

Input parameters:
  fixdensity: True
  kpts: [[ 0.          0.5         0.        ],
         [ 0.00502134  0.5         0.        ],
         [-0.00502134  0.5         0.        ],
         ...,
         [ 0.          0.5        -0.02510669],
         [ 0.          0.5         0.03012803],
         [ 0.          0.5        -0.03012803]]

Initialize ...

species:
  Sn:
    name: Tin
    id: d1329c6b410f1e0bd923643368775dcd
    Z: 50.0
    valence: 14
    core: 36
    charge: 0.0
    file: /home/luis-ochoa/.gpaw/gpaw-setups-24.11.0/Sn.PBE.gz
    compensation charges: {type: gauss,
                           rc: 0.38,
                           lmax: 2}
    cutoffs: {filter: 2.23,
              core: 2.35}
    projectors:
      #              energy  rcut
      - 5s(2.00)   -10.538   1.201
      - 5p(2.00)    -3.696   1.270
      - 4d(10.00)   -25.845   1.185
      -  s          16.674   1.201
      -  p          23.515   1.270
      -  d           1.367   1.185
  
    # Using partial waves for Sn as LCAO basis

  I:
    name: Iodine
    id: 91405a398e4dfe788ff04f57531604ec
    Z: 53.0
    valence: 7
    core: 46
    charge: 0.0
    file: /home/luis-ochoa/.gpaw/gpaw-setups-24.11.0/I.PBE.gz
    compensation charges: {type: gauss,
                           rc: 0.37,
                           lmax: 2}
    cutoffs: {filter: 2.06,
              core: 2.90}
    projectors:
      #              energy  rcut
      - 5s(2.00)   -17.382   1.164
      - 5p(5.00)    -7.088   1.164
      -  s           9.829   1.164
      -  p          20.123   1.164
      -  d           0.000   1.164
  
    # Using partial waves for I as LCAO basis

  C:
    name: Carbon
    id: 4aa54d4b901d75f77cc0ea3eec22967b
    Z: 6.0
    valence: 4
    core: 2
    charge: 0.0
    file: /home/luis-ochoa/.gpaw/gpaw-setups-24.11.0/C.PBE.gz
    compensation charges: {type: gauss,
                           rc: 0.20,
                           lmax: 2}
    cutoffs: {filter: 1.14,
              core: 1.14}
    projectors:
      #              energy  rcut
      - 2s(2.00)   -13.751   0.635
      - 2p(2.00)    -5.284   0.635
      -  s          13.461   0.635
      -  p          21.927   0.635
      -  d           0.000   0.635
  
    # Using partial waves for C as LCAO basis

  N:
    name: Nitrogen
    id: f7500608b86eaa90eef8b1d9a670dc53
    Z: 7.0
    valence: 5
    core: 2
    charge: 0.0
    file: /home/luis-ochoa/.gpaw/gpaw-setups-24.11.0/N.PBE.gz
    compensation charges: {type: gauss,
                           rc: 0.18,
                           lmax: 2}
    cutoffs: {filter: 1.11,
              core: 0.96}
    projectors:
      #              energy  rcut
      - 2s(2.00)   -18.583   0.603
      - 2p(3.00)    -7.089   0.529
      -  s           8.629   0.603
      -  p          20.123   0.529
      -  d           0.000   0.577
  
    # Using partial waves for N as LCAO basis

  H:
    name: Hydrogen
    id: d65de229564ff8ea4db303e23b6d1ecf
    Z: 1.0
    valence: 1
    core: 0
    charge: 0.0
    file: /home/luis-ochoa/.gpaw/gpaw-setups-24.11.0/H.PBE.gz
    compensation charges: {type: gauss,
                           rc: 0.15,
                           lmax: 2}
    cutoffs: {filter: 0.85,
              core: 0.53}
    projectors:
      #              energy  rcut
      - 1s(1.00)    -6.494   0.476
      -  s          20.717   0.476
      -  p           0.000   0.476
  
    # Using partial waves for H as LCAO basis

Reference energy: -752686.602241  # eV

Spin-paired calculation

Convergence criteria:
 Maximum [total energy] change in last 3 cyles: 1e-08 eV / valence electron
 Maximum integral of absolute [dens]ity change: 0.0001 electrons / valence electron
 Maximum integral of absolute [eigenst]ate change: 4e-08 eV^2 / valence electron
 Maximum number of scf [iter]ations: 333
 (Square brackets indicate name in SCF output, whereas a 'c' in
 the SCF output indicates the quantity has converged.)

Symmetries present (total): 1

  ( 1  0  0)
  ( 0  1  0)
  ( 0  0  1)

37 k-points
37 k-points in the irreducible part of the Brillouin zone
       k-points in crystal coordinates                weights
   0:     0.00000000    0.50000000    0.00000000       0.02702703
   1:     0.00502134    0.50000000    0.00000000       0.02702703
   2:    -0.00502134    0.50000000    0.00000000       0.02702703
   3:     0.01004268    0.50000000    0.00000000       0.02702703
   4:    -0.01004268    0.50000000    0.00000000       0.02702703
   5:     0.01506402    0.50000000    0.00000000       0.02702703
   6:    -0.01506402    0.50000000    0.00000000       0.02702703
   7:     0.02008535    0.50000000    0.00000000       0.02702703
   8:    -0.02008535    0.50000000    0.00000000       0.02702703
   9:     0.02510669    0.50000000    0.00000000       0.02702703
          ...
  36:     0.00000000    0.50000000   -0.03012803       0.02702703

Wave functions: Plane wave expansion
  Cutoff energy: 450.000 eV
  Number of coefficients (min, max): 5406, 5436
  Pulay-stress correction: 0.000000 eV/Ang^3 (de/decut=0.000000)
  Using Numpy's FFT
  ScaLapack parameters: grid=1x1, blocksize=None
  Wavefunction extrapolation:
    Improved wavefunction reuse through dual PAW basis 

Occupation numbers: Fermi-Dirac:
  width: 0.1000  # eV
 

Eigensolver
   Davidson(niter=2) 

No density mixing

XC parameters: PBE with 2 nearest neighbor stencil

Memory estimate:
  Process memory now: 725.26 MiB
  Calculator: 53.09 MiB
    Density: 20.62 MiB
      Arrays: 6.50 MiB
      Localized functions: 11.62 MiB
      Mixer: 2.50 MiB
    Hamiltonian: 4.61 MiB
      Arrays: 4.25 MiB
      XC: 0.00 MiB
      Poisson: 0.00 MiB
      vbar: 0.36 MiB
    Wavefunctions: 27.86 MiB
      Arrays psit_nG: 15.35 MiB
      Eigensolver: 3.69 MiB
      Projections: 0.34 MiB
      Projectors: 6.81 MiB
      PW-descriptor: 1.66 MiB

Total number of cores used: 7
Parallelization over k-points: 7

Number of atoms: 12
Number of atomic orbitals: 38
Number of bands in calculation: 37
Number of valence electrons: 54
Bands to converge: occupied

... initialized

Initializing position-dependent things.

Creating initial wave functions:
  37 bands from LCAO basis set

     .---------------.  
    /|               |  
   / |             I |  
  /  |               |  
 Sn  |     H         |  
 |   | H I C    H    |  
 |   |H N     NH     |  
 |   |               |  
 |   .-----------I---.  
 |  /               /   
 | /               /    
 |/               /     
 *---------------*      

Atomic positions and initial magnetic moments

Positions:
   0 Sn     0.000000    0.000034   -0.238067    ( 0.0000,  0.0000,  0.0000)
   1 I      3.155000    0.000005   -0.908927    ( 0.0000,  0.0000,  0.0000)
   2 I     -0.000000    3.154973   -0.191350    ( 0.0000,  0.0000,  0.0000)
   3 I     -0.000000    0.000001    2.886908    ( 0.0000,  0.0000,  0.0000)
   4 C      3.155000    3.155004    3.684079    ( 0.0000,  0.0000,  0.0000)
   5 N      1.979608    3.154983    2.960699    ( 0.0000,  0.0000,  0.0000)
   6 N      4.330392    3.155016    2.960699    ( 0.0000,  0.0000,  0.0000)
   7 H      3.155000    3.155035    4.789245    ( 0.0000,  0.0000,  0.0000)
   8 H      1.397168    3.955787    3.316323    ( 0.0000,  0.0000,  0.0000)
   9 H      1.397158    2.354195    3.316333    ( 0.0000,  0.0000,  0.0000)
  10 H      4.912849    3.955779    3.316376    ( 0.0000,  0.0000,  0.0000)
  11 H      4.912824    2.354186    3.316280    ( 0.0000,  0.0000,  0.0000)

Unit cell:
           periodic     x           y           z      points  spacing
  1. axis:    yes    6.310000    0.000000    0.000000    32     0.1972
  2. axis:    yes    0.000000    6.310000    0.000000    32     0.1972
  3. axis:    yes    0.000000    0.000000    6.310000    32     0.1972

  Lengths:   6.310000   6.310000   6.310000
  Angles:   90.000000  90.000000  90.000000

Effective grid spacing dv^(1/3) = 0.1972

     iter     time        total  log10-change:
                         energy   eigst   dens
iter:   1 07:27:49   -50.391496               c
iter:   2 07:27:52   -50.509100   -1.31       c
iter:   3 07:27:56   -50.517216   -2.29       c
iter:   4 07:27:59   -50.518219   -3.14       c
iter:   5 07:28:02   -50.518365   -3.96       c
iter:   6 07:28:05   -50.518388   -4.73       c
iter:   7 07:28:09   -50.518392   -5.46       c
iter:   8 07:28:12   -50.518393   -6.14       c
iter:   9 07:28:15   -50.518393   -6.82       c
iter:  10 07:28:18   -50.518393c  -7.51c      c

Converged after 10 iterations.

Dipole moment: (-0.000002, -0.001832, 22.972178) |e|*Ang

Energy contributions relative to reference atoms: (reference = -752686.602241)

Kinetic:        +46.022874
Potential:      -49.678238
External:        +0.000000
XC:             -46.684774
Entropy (-ST):   -0.029516
Local:           -0.163496
SIC:             +0.000000
--------------------------
Free energy:    -50.533151
Extrapolated:   -50.518393

Showing only first 2 kpts
 Kpt  Band  Eigenvalues  Occupancy
  0    25      0.86692    1.99270
  0    26      0.96474    1.98070
  0    27      1.85978    0.02627
  0    28      3.47555    0.00000

  1    25      0.86692    1.99270
  1    26      0.96480    1.98069
  1    27      1.85985    0.02625
  1    28      3.47548    0.00000


Fermi level: 1.42787

Gap: 0.892 eV
Transition (v -> c):
  (s=0, k=12, n=26, [-0.03, 0.50, 0.00]) -> (s=0, k=35, n=27, [0.00, 0.50, 0.03])
Direct/indirect transitions are different
Direct gap: 0.893 eV
Transition at: (s=0, k=35, n=26, [0.00, 0.50, 0.03])
Writing to /home/luis-ochoa/Documents/Vscode/py/dft/calculations/top8_pbe/FASnI3/10_effective_masses/effmass_fine.gpw (mode='')

Timing:                              incl.     excl.
-----------------------------------------------------------
Hamiltonian:                         0.266     0.002   0.0% |
 Atomic:                             0.097     0.047   0.1% |
  XC Correction:                     0.051     0.051   0.1% |
 Calculate atomic Hamiltonians:      0.064     0.064   0.2% |
 Communicate:                        0.000     0.000   0.0% |
 Poisson:                            0.001     0.001   0.0% |
 XC 3D grid:                         0.102     0.102   0.3% |
LCAO initialization:                 2.907     0.334   0.9% |
 LCAO eigensolver:                   0.216     0.000   0.0% |
  Calculate projections:             0.002     0.002   0.0% |
  DenseAtomicCorrection:             0.005     0.005   0.0% |
  Distribute overlap matrix:         0.000     0.000   0.0% |
  Orbital Layouts:                   0.004     0.004   0.0% |
  Potential matrix:                  0.202     0.202   0.5% |
  Sum over cells:                    0.003     0.003   0.0% |
 LCAO to grid:                       1.993     1.993   5.3% |-|
 Set positions (LCAO WFS):           0.363     0.064   0.2% |
  Basic WFS set positions:           0.001     0.001   0.0% |
  Basis functions set positions:     0.000     0.000   0.0% |
  P tci:                             0.147     0.147   0.4% |
  ST tci:                            0.134     0.134   0.4% |
  mktci:                             0.018     0.018   0.0% |
PWDescriptor:                        0.022     0.022   0.1% |
Redistribute:                        0.000     0.000   0.0% |
SCF-cycle:                          33.157     5.752  15.3% |-----|
 Davidson:                          27.223     5.296  14.1% |-----|
  Apply H:                           3.854     3.770  10.0% |---|
   HMM T:                            0.084     0.084   0.2% |
  Subspace diag:                     5.390     0.006   0.0% |
   calc_h_matrix:                    4.514     0.656   1.7% ||
    Apply H:                         3.858     3.773  10.0% |---|
     HMM T:                          0.085     0.085   0.2% |
   diagonalize:                      0.031     0.031   0.1% |
   rotate_psi:                       0.838     0.838   2.2% ||
  calc. matrices:                   10.836     3.199   8.5% |--|
   Apply H:                          7.636     7.477  19.9% |-------|
    HMM T:                           0.160     0.160   0.4% |
  diagonalize:                       0.267     0.267   0.7% |
  rotate_psi:                        1.580     1.580   4.2% |-|
 Orthonormalize:                     0.182     0.001   0.0% |
  calc_s_matrix:                     0.033     0.033   0.1% |
  inverse-cholesky:                  0.001     0.001   0.0% |
  projections:                       0.107     0.107   0.3% |
  rotate_psi_s:                      0.040     0.040   0.1% |
Set symmetry:                        0.000     0.000   0.0% |
Other:                               1.212     1.212   3.2% ||
-----------------------------------------------------------
Total:                                        37.565 100.0%

Memory usage: 725.26 MiB
Date: Sat May  9 07:28:19 2026
