  __  _  _
 | _ |_)|_||  |
 |__||  | ||/\| - 25.7.1b1

User:   luis-ochoa@luis-pc
Date:   Fri May 22 14:10:05 2026
Arch:   x86_64
Pid:    99552
CWD:    /home/luis-ochoa/Documents/Vscode/py/dft
units:  Angstrom and eV
cores:  22
OpenMP: False

Versions:
  Python: 3.12.3
  ASE:    3.28.0
  Numpy:  2.4.4
  Scipy:  1.17.1
  Libxc:  7.0.0

Paths:
  gpaw:  /tmp/gpaw_master/gpaw
  _gpaw: /tmp/gpaw_master/_gpaw.cpython-312-x86_64-linux-gnu.so
  ase:   /home/luis-ochoa/Documents/Vscode/py/dft/.venv/lib/python3.12/site-packages/ase
  numpy: /home/luis-ochoa/Documents/Vscode/py/dft/.venv/lib/python3.12/site-packages/numpy
  scipy: /home/luis-ochoa/Documents/Vscode/py/dft/.venv/lib/python3.12/site-packages/scipy

Git-hashes:
  gpaw:  33e6740c92
  _gpaw: 33e6740c92

OMP_NUM_THREADS: 1


Environment variables:
  GPAW_CPUPY:          False
  GPAW_DEBUG:          False
  GPAW_INITIALIZE_MPI: True
  GPAW_MPI_BACKEND:    cgpaw
  GPAW_NO_C_EXTENSION: False
  GPAW_NO_GPU_MPI:     False
  GPAW_SETUP_PATH:     /home/luis-ochoa/.gpaw/gpaw-setups-24.11.0
  GPAW_TRACE:          False
  GPAW_USE_GPUS:       False

Input parameters:
  mode=PW(ecut=450.00000000000006),
  convergence={'energy': 1e-06, 'eigenstates': 1e-08, 'density': 0.0001},
  eigensolver=Davidson(niter=4),
  kpts=MonkhorstPack(size=[6, 6, 6], gamma=True),
  mixer=Mixer(backend='msr1', beta=0.02, nmaxold=5, weight=100),
  occupations=Occupations(name='fermi-dirac', width=0.25),
  parallel={'domain': 1},
  setups={'Sn': ':s,3.5'},
  xc=XC(name='MGGA_X_R2SCAN+MGGA_C_R2SCAN')

Diagonalizing LCAO Hamiltonian
Converting LCAO to pw mode

Atoms  # Å, Bohr magnetons
|   | symbol |        x |        y |        z |    initial magnetic moments |
|---|--------|----------|----------|----------|-----------------------------|
| 0 |     Cs | 3.100000 | 3.100000 | 3.100000 | ( 0.0000,  0.0000,  0.0000) |
| 1 |     Sn | 0.000000 | 0.000000 | 0.000000 | ( 0.0000,  0.0000,  0.0000) |
| 2 |      I | 3.100000 | 0.000000 | 0.000000 | ( 0.0000,  0.0000,  0.0000) |
| 3 |      I | 0.000000 | 3.100000 | 0.000000 | ( 0.0000,  0.0000,  0.0000) |
| 4 |      I | 0.000000 | 0.000000 | 3.100000 | ( 0.0000,  0.0000,  0.0000) |


Unit cell  # Å
| periodic |        x |        y |        z |  lengths |    angles |
|----------|----------|----------|----------|----------|-----------|
|      yes | 6.200000 | 0.000000 | 0.000000 | 6.200000 | 90.000000 |
|      yes | 0.000000 | 6.200000 | 0.000000 | 6.200000 | 90.000000 |
|      yes | 0.000000 | 0.000000 | 6.200000 | 6.200000 | 90.000000 |


Number of symmetries: 48
Symmetry operations  # r_c * U_cc + t_c -> r_c
|    | kind |            matrix            |
|----|------|------------------------------|
|  0 |  E   |  1, 0, 0,  0, 1, 0,  0, 0, 1 |
|  1 |  σ   |  1, 0, 0,  0, 1, 0,  0, 0,-1 |
|  2 |  σ   |  1, 0, 0,  0, 0, 1,  0, 1, 0 |
|  3 |  C4  |  1, 0, 0,  0, 0, 1,  0,-1, 0 |
|  4 |  C4  |  1, 0, 0,  0, 0,-1,  0, 1, 0 |
|  5 |  σ   |  1, 0, 0,  0, 0,-1,  0,-1, 0 |
|  6 |  σ   |  1, 0, 0,  0,-1, 0,  0, 0, 1 |
|  7 |  C2  |  1, 0, 0,  0,-1, 0,  0, 0,-1 |
|  8 |  σ   |  0, 1, 0,  1, 0, 0,  0, 0, 1 |
|  9 |  C2  |  0, 1, 0,  1, 0, 0,  0, 0,-1 |
| 10 |  C3  |  0, 1, 0,  0, 0, 1,  1, 0, 0 |
| 11 |  S6  |  0, 1, 0,  0, 0, 1, -1, 0, 0 |
| 12 |  S6  |  0, 1, 0,  0, 0,-1,  1, 0, 0 |
| 13 |  C3  |  0, 1, 0,  0, 0,-1, -1, 0, 0 |
| 14 |  C4  |  0, 1, 0, -1, 0, 0,  0, 0, 1 |
| 15 |  S4  |  0, 1, 0, -1, 0, 0,  0, 0,-1 |
| 16 |  C3  |  0, 0, 1,  1, 0, 0,  0, 1, 0 |
| 17 |  S6  |  0, 0, 1,  1, 0, 0,  0,-1, 0 |
| 18 |  σ   |  0, 0, 1,  0, 1, 0,  1, 0, 0 |
| 19 |  C4  |  0, 0, 1,  0, 1, 0, -1, 0, 0 |
| 20 |  C2  |  0, 0, 1,  0,-1, 0,  1, 0, 0 |
| 21 |  S4  |  0, 0, 1,  0,-1, 0, -1, 0, 0 |
| 22 |  S6  |  0, 0, 1, -1, 0, 0,  0, 1, 0 |
| 23 |  C3  |  0, 0, 1, -1, 0, 0,  0,-1, 0 |
| 24 |  S6  |  0, 0,-1,  1, 0, 0,  0, 1, 0 |
| 25 |  C3  |  0, 0,-1,  1, 0, 0,  0,-1, 0 |
| 26 |  C4  |  0, 0,-1,  0, 1, 0,  1, 0, 0 |
| 27 |  σ   |  0, 0,-1,  0, 1, 0, -1, 0, 0 |
| 28 |  S4  |  0, 0,-1,  0,-1, 0,  1, 0, 0 |
| 29 |  C2  |  0, 0,-1,  0,-1, 0, -1, 0, 0 |
| 30 |  C3  |  0, 0,-1, -1, 0, 0,  0, 1, 0 |
| 31 |  S6  |  0, 0,-1, -1, 0, 0,  0,-1, 0 |
| 32 |  C4  |  0,-1, 0,  1, 0, 0,  0, 0, 1 |
| 33 |  S4  |  0,-1, 0,  1, 0, 0,  0, 0,-1 |
| 34 |  S6  |  0,-1, 0,  0, 0, 1,  1, 0, 0 |
| 35 |  C3  |  0,-1, 0,  0, 0, 1, -1, 0, 0 |
| 36 |  C3  |  0,-1, 0,  0, 0,-1,  1, 0, 0 |
| 37 |  S6  |  0,-1, 0,  0, 0,-1, -1, 0, 0 |
| 38 |  σ   |  0,-1, 0, -1, 0, 0,  0, 0, 1 |
| 39 |  C2  |  0,-1, 0, -1, 0, 0,  0, 0,-1 |
| 40 |  σ   | -1, 0, 0,  0, 1, 0,  0, 0, 1 |
| 41 |  C2  | -1, 0, 0,  0, 1, 0,  0, 0,-1 |
| 42 |  C2  | -1, 0, 0,  0, 0, 1,  0, 1, 0 |
| 43 |  S4  | -1, 0, 0,  0, 0, 1,  0,-1, 0 |
| 44 |  S4  | -1, 0, 0,  0, 0,-1,  0, 1, 0 |
| 45 |  C2  | -1, 0, 0,  0, 0,-1,  0,-1, 0 |
| 46 |  C2  | -1, 0, 0,  0,-1, 0,  0, 0, 1 |
| 47 |  i   | -1, 0, 0,  0,-1, 0,  0, 0,-1 |

BZ-sampling:
  Number of BZ points: 216
  Number of IBZ points: 20

  Monkhorst-Pack size: [6, 6, 6]
  Monkhorst-Pack shift: [0.08333333333333333, 0.08333333333333333, 0.08333333333333333]

K-points  # in reciprocal-cell coordinates
|     |                                coordinates |     weight |
|-----|--------------------------------------------|------------|
|   0 | (  0.00000000,   0.00000000,   0.00000000) | 0.00462963 |
|   1 | (  0.16666667,   0.00000000,   0.00000000) | 0.02777778 |
|   2 | (  0.16666667,   0.16666667,   0.00000000) | 0.05555556 |
|   3 | (  0.16666667,   0.16666667,   0.16666667) | 0.03703704 |
|   4 | (  0.33333333,   0.00000000,   0.00000000) | 0.02777778 |
|   5 | (  0.33333333,   0.16666667,   0.00000000) | 0.11111111 |
|   6 | (  0.33333333,   0.16666667,   0.16666667) | 0.11111111 |
|   7 | (  0.33333333,   0.33333333,   0.00000000) | 0.05555556 |
|   8 | (  0.33333333,   0.33333333,   0.16666667) | 0.11111111 |
|   9 | (  0.33333333,   0.33333333,   0.33333333) | 0.03703704 |
| ... |                                            |            |
|  19 | (  0.50000000,   0.50000000,   0.50000000) | 0.00462963 |

Plane wave coefficients: 5232
Cutoff: 450.00000000000006 eV

Spin-components: 1 (collinear spins)
Bands:           26
Projectors:      26
Spin-degeneracy: 2
Datatype:        complex128

Memory:
  Storage: CPU
  Wave functions: 43_139_200 bytes (1_960_872 per core)
  Projectors: 49_776_000 bytes (4_525_090 per core)

Parallelization:
  kpt:    11
  domain: 1
  band:   2

Density:
  Valence electrons: 44.0
  Components: 1
  Grid points: [32 32 32]
  Charge: 0.0  # |e|

Potential:
  Grid points: [32 32 32]

species:
  Cs:
    name:    Caesium
    id:      fa822afd343f47335d508b9ee4f394c3
    Z:       55.0
    valence: 9
    core:    46
    charge:  0.0  # [|e|]
    file:    /home/luis-ochoa/.gpaw/gpaw-setups-24.11.0/Cs.PBE.gz
    compensation charges:
      type: gauss
      rc: 0.33  # [Å]
      lmax: 2
    cutoffs:
      filter: 2.06  # [Å]
      core: 2.51  # [Å]
    projectors
    | kind |    occ | energy [eV] | rcut [Å] |
    |------|--------|-------------|----------|
    |   5s |  2.000 |     -26.706 |    1.164 |
    |   6s |  1.000 |      -2.085 |    1.164 |
    |   5p |  6.000 |     -13.523 |    1.058 |
    |    p |        |      13.688 |    1.058 |
    |    d |        |       0.000 |    1.058 |
  
    Using partial waves for Cs as LCAO basis

  Sn:
    name:    Tin
    id:      d1329c6b410f1e0bd923643368775dcd
    Z:       50.0
    valence: 14
    core:    36
    charge:  0.0  # [|e|]
    Hubbard: {U: 3.5,  # eV
              l: 0,
              scale: True}
    file:    /home/luis-ochoa/.gpaw/gpaw-setups-24.11.0/Sn.PBE.gz
    compensation charges:
      type: gauss
      rc: 0.38  # [Å]
      lmax: 2
    cutoffs:
      filter: 2.23  # [Å]
      core: 2.35  # [Å]
    projectors
    | kind |    occ | energy [eV] | rcut [Å] |
    |------|--------|-------------|----------|
    |   5s |  2.000 |     -10.538 |    1.201 |
    |   5p |  2.000 |      -3.696 |    1.270 |
    |   4d | 10.000 |     -25.845 |    1.185 |
    |    s |        |      16.674 |    1.201 |
    |    p |        |      23.515 |    1.270 |
    |    d |        |       1.367 |    1.185 |
  
    Using partial waves for Sn as LCAO basis

  I:
    name:    Iodine
    id:      91405a398e4dfe788ff04f57531604ec
    Z:       53.0
    valence: 7
    core:    46
    charge:  0.0  # [|e|]
    file:    /home/luis-ochoa/.gpaw/gpaw-setups-24.11.0/I.PBE.gz
    compensation charges:
      type: gauss
      rc: 0.37  # [Å]
      lmax: 2
    cutoffs:
      filter: 2.06  # [Å]
      core: 2.90  # [Å]
    projectors
    | kind |    occ | energy [eV] | rcut [Å] |
    |------|--------|-------------|----------|
    |   5s |  2.000 |     -17.382 |    1.164 |
    |   5p |  5.000 |      -7.088 |    1.164 |
    |    s |        |       9.829 |    1.164 |
    |    p |        |      20.123 |    1.164 |
    |    d |        |       0.000 |    1.164 |
  
    Using partial waves for I as LCAO basis

Reference energy: -960433.156792  # eV

eigensolver:
  Davidson
  Converge bands: occupied
  niter=4
  
Density mixing:
  Method: separate
  Backend: msr1
  Linear mixing parameter: 0.02
  old densities: 5
  Width of damping distribution: 1.1
  Damping of long wavelength oscillations: 100
occupation numbers:
  Fermi-Dirac:
    width: 0.2500  # eV
  

<gpaw.new.pw.paw_poisson.SlowPAWPoissonSolver object at 0x72e8b5879880>
xc functional:
  name: MGGA_X_R2SCAN+MGGA_C_R2SCAN with 2 nearest neighbor stencil

Initialization done in: 13.388 s

convergence criteria:
- Maximum [total energy] change in last 3 cyles: 1e-06 eV / valence electron
- Maximum integral of absolute [eigenst]ate change: 1e-08 eV^2 / valence electron
- Maximum integral of absolute [dens]ity change: 0.0001 electrons / valence electron
maximum number of iterations: 333

SCF iterations
|iter     |     time |      energy | eigst |  dens |
|---------|----------|-------------|-------|-------|
|iter:   1| 14:10:36 |  -99.326089 | -1.54 |       |
|iter:   2| 14:10:58 |  -91.893755 | -2.03 | -1.39 |
|iter:   3| 14:11:20 |  -96.451790 | -1.25 | -1.33 |
|iter:   4| 14:11:38 |  -92.088008 | -2.08 | -1.25 |
|iter:   5| 14:12:02 |  -92.528269 | -2.32 | -1.52 |
|iter:   6| 14:12:21 |  -92.778229 | -2.14 | -1.59 |
|iter:   7| 14:12:41 |  -92.909676 | -2.47 | -1.72 |
|iter:   8| 14:13:04 |  -93.230859 | -1.70 | -1.76 |
|iter:   9| 14:13:23 |  -93.313631 | -2.25 | -2.58 |
|iter:  10| 14:13:44 |  -93.316371 | -3.13 | -2.69 |
|iter:  11| 14:14:04 |  -93.344158 | -3.32 | -2.62 |
|iter:  12| 14:14:23 |  -93.291592 | -3.55 | -2.62 |
|iter:  13| 14:14:44 |  -93.468967 | -2.30 | -2.59 |
|iter:  14| 14:15:03 |  -93.559501 | -2.52 | -2.63 |
|iter:  15| 14:15:24 |  -93.669436 | -2.63 | -2.59 |
|iter:  16| 14:15:44 |  -93.375976 | -2.17 | -2.57 |
|iter:  17| 14:16:03 |  -93.818030 | -1.72 | -2.55 |
|iter:  18| 14:16:25 |  -93.763525 | -3.35 | -2.50 |
|iter:  19| 14:16:44 |  -94.078267 | -2.64 | -2.37 |
|iter:  20| 14:17:06 |  -94.103397 | -3.48 | -2.35 |
|iter:  21| 14:17:26 |  -93.475951 | -1.64 | -2.23 |
|iter:  22| 14:17:45 |  -94.207666 | -1.62 | -2.40 |
|iter:  23| 14:18:07 |  -96.203575 | -0.88 | -2.31 |
|iter:  24| 14:18:26 |  -96.014165 | -2.14 | -2.23 |
|iter:  25| 14:18:47 |  -95.824605 | -4.37 | -2.15 |
|iter:  26| 14:19:07 |  -95.718713 | -4.15 | -2.08 |
|iter:  27| 14:19:25 |  -95.870474 | -3.97 | -2.00 |
|iter:  28| 14:19:48 |  -94.499128 | -2.21 | -1.84 |
|iter:  29| 14:20:08 |  -95.704760 | -1.71 | -2.05 |
|iter:  30| 14:20:28 |  -95.317742 | -3.99 | -1.89 |
|iter:  31| 14:20:50 |  -94.203338 | -1.95 | -1.91 |
|iter:  32| 14:21:11 |  -93.199194 | -1.79 | -2.16 |
|iter:  33| 14:21:32 |  -93.174286 | -2.62 | -2.23 |
|iter:  34| 14:21:54 |  -93.232034 | -3.51 | -2.21 |
|iter:  35| 14:22:14 |  -93.693242 | -2.19 | -2.35 |
|iter:  36| 14:22:35 |  -96.813108 | -0.54 | -2.47 |
|iter:  37| 14:22:55 |  -94.193044 | -1.67 | -2.39 |
|iter:  38| 14:23:14 |  -95.214547 | -2.01 | -2.31 |
|iter:  39| 14:23:35 |  -95.618187 | -2.25 | -2.23 |
|iter:  40| 14:23:54 |  -95.278492 | -3.57 | -2.15 |
|iter:  41| 14:24:15 |  -95.082055 | -3.29 | -2.07 |
|iter:  42| 14:24:38 |  -93.367725 | -2.05 | -1.96 |
|iter:  43| 14:24:57 |  -93.686739 | -2.48 | -2.35 |
|iter:  44| 14:25:20 |  -96.165489 | -0.95 | -2.29 |
|iter:  45| 14:25:38 |  -93.570596 | -1.68 | -2.21 |
|iter:  46| 14:25:59 |  -93.977086 | -3.42 | -2.06 |
|iter:  47| 14:26:20 |  -94.955475 | -1.42 | -2.35 |
|iter:  48| 14:26:39 |  -93.117660 | -1.51 | -2.27 |
|iter:  49| 14:26:59 |  -93.110148 | -2.23 | -2.48 |
|iter:  50| 14:27:19 |  -92.795481 | -2.65 | -2.57 |
|iter:  51| 14:27:38 |  -93.670016 | -1.55 | -2.49 |
|iter:  52| 14:28:00 |  -93.672012 | -2.68 | -2.62 |
|iter:  53| 14:28:19 |  -95.296169 | -1.10 | -2.51 |
|iter:  54| 14:28:41 |  -93.115285 | -1.55 | -2.43 |
|iter:  55| 14:29:00 |  -93.531661 | -3.20 | -2.46 |
|iter:  56| 14:29:18 |  -93.196593 | -1.94 | -2.61 |
|iter:  57| 14:29:41 |  -94.416927 | -0.75 | -2.59 |
|iter:  58| 14:30:00 |  -93.110233 | -1.32 | -2.48 |
|iter:  59| 14:30:21 |  -93.849065 | -1.50 | -2.54 |
|iter:  60| 14:30:40 | -103.351830 | +0.12 | -2.58 |
|iter:  61| 14:30:59 | -104.963349 | -0.81 | -2.50 |
|iter:  62| 14:31:21 | -102.645793 | -2.50 | -2.42 |
|iter:  63| 14:31:40 | -100.982771 | -3.56 | -2.34 |
|iter:  64| 14:32:02 |  -99.636972 | -3.70 | -2.26 |
|iter:  65| 14:32:22 |  -98.525036 | -3.77 | -2.18 |
|iter:  66| 14:32:41 |  -97.711170 | -3.75 | -2.10 |
|iter:  67| 14:33:04 |  -97.037428 | -3.68 | -2.02 |
|iter:  68| 14:33:22 |  -96.477571 | -3.47 | -1.94 |
|iter:  69| 14:33:43 |  -96.479881 | -4.65 | -1.86 |
|iter:  70| 14:34:03 |  -93.783430 | -2.28 | -1.74 |
|iter:  71| 14:34:21 |  -93.924638 | -3.43 | -2.30 |
|iter:  72| 14:34:43 |  -93.783623 | -2.86 | -2.34 |
|iter:  73| 14:35:01 |  -94.068096 | -2.51 | -2.32 |
|iter:  74| 14:35:22 |  -93.663486 | -2.22 | -2.28 |
|iter:  75| 14:35:42 |  -95.352872 | -0.99 | -2.38 |
|iter:  76| 14:36:00 |  -93.029619 | -1.37 | -2.30 |
|iter:  77| 14:36:24 |  -92.749745 | -2.07 | -2.50 |
|iter:  78| 14:36:44 |  -93.760860 | -1.04 | -2.45 |
|iter:  79| 14:37:05 |  -99.637338 | -0.13 | -2.65 |
|iter:  80| 14:37:27 |  -99.050076 | -1.48 | -2.58 |
|iter:  81| 14:37:45 |  -98.357233 | -3.53 | -2.50 |
|iter:  82| 14:38:08 |  -97.534551 | -3.07 | -2.42 |
|iter:  83| 14:38:28 |  -96.867864 | -3.34 | -2.34 |
|iter:  84| 14:38:46 |  -96.318049 | -3.16 | -2.26 |
|iter:  85| 14:39:07 |  -95.924711 | -3.16 | -2.18 |
|iter:  86| 14:39:26 |  -95.624264 | -3.21 | -2.10 |
|iter:  87| 14:39:49 |  -95.617283 | -4.35 | -2.02 |
|iter:  88| 14:40:11 |  -93.610428 | -1.75 | -1.88 |
|iter:  89| 14:40:29 |  -97.126120 | -0.56 | -2.34 |
|iter:  90| 14:40:50 |  -97.046088 | -1.77 | -2.26 |
|iter:  91| 14:41:08 |  -96.474379 | -3.90 | -2.18 |
|iter:  92| 14:41:30 |  -96.024056 | -3.09 | -2.11 |
|iter:  93| 14:41:48 |  -95.684103 | -3.05 | -2.03 |
|iter:  94| 14:42:08 |  -93.492170 | -1.83 | -1.85 |
|iter:  95| 14:42:31 |  -93.594406 | -2.84 | -2.38 |
|iter:  96| 14:42:49 |  -93.386514 | -2.64 | -2.52 |
|iter:  97| 14:43:10 |  -93.426384 | -4.36 | -2.59 |
|iter:  98| 14:43:31 |  -93.461366 | -4.71 | -2.60 |
|iter:  99| 14:43:50 |  -93.673517 | -2.28 | -2.52 |
|iter: 100| 14:44:13 |  -93.204764 | -1.84 | -2.40 |
|iter: 101| 14:44:31 |  -94.114875 | -1.02 | -2.48 |
|iter: 102| 14:44:53 |  -93.095677 | -1.38 | -2.43 |
|iter: 103| 14:45:15 |  -92.326649 | -2.27 | -2.50 |
|iter: 104| 14:45:33 |  -94.629213 | -0.38 | -2.42 |
|iter: 105| 14:45:56 | -110.935265 | +0.39 | -2.37 |
|iter: 106| 14:46:18 | -116.933977 | -0.33 | -2.29 |
|iter: 107| 14:46:37 | -111.672467 | -1.85 | -2.22 |
|iter: 108| 14:47:00 | -107.591896 | -3.08 | -2.14 |
|iter: 109| 14:47:19 | -104.895159 | -3.39 | -2.06 |
|iter: 110| 14:47:39 | -103.383575 | -3.72 | -1.98 |
|iter: 111| 14:47:59 | -102.244513 | -3.62 | -1.90 |
|iter: 112| 14:48:17 | -101.377241 | -3.60 | -1.82 |
|iter: 113| 14:48:40 | -100.513608 | -3.58 | -1.74 |
|iter: 114| 14:48:59 |  -99.851651 | -3.63 | -1.66 |
|iter: 115| 14:49:18 | -100.089946 | -4.41 | -1.58 |
|iter: 116| 14:49:39 | -100.081928 | -4.61 | -1.50 |
|iter: 117| 14:49:58 |  -95.074082 | -3.46 | -1.37 |
|iter: 118| 14:50:20 |  -94.022250 | -1.84 | -1.96 |
|iter: 119| 14:50:39 |  -92.912336 | -1.62 | -2.22 |
|iter: 120| 14:50:58 |  -95.301416 | -0.34 | -2.41 |
|iter: 121| 14:51:21 |  -90.537552 | -1.33 | -2.33 |
|iter: 122| 14:51:40 |  -91.006054 | -3.38 | -2.25 |
|iter: 123| 14:52:02 |  -91.007464 | -5.03 | -2.17 |
|iter: 124| 14:52:21 |  -90.937549 | -5.19 | -2.09 |
|iter: 125| 14:52:40 |  -92.999126 | -1.65 | -1.97 |
|iter: 126| 14:53:03 |  -92.906892 | -2.73 | -2.27 |
|iter: 127| 14:53:21 |  -92.608472 | -3.58 | -2.53 |
|iter: 128| 14:53:42 |  -93.903839 | -1.07 | -2.44 |
|iter: 129| 14:54:05 |  -94.616175 | -1.54 | -2.36 |
|iter: 130| 14:54:23 |  -92.982723 | -1.19 | -2.28 |
|iter: 131| 14:54:46 |  -91.937467 | -2.26 | -2.50 |
|iter: 132| 14:55:05 |  -91.996929 | -4.23 | -2.42 |
|iter: 133| 14:55:24 |  -93.688063 | -0.71 | -2.34 |
|iter: 134| 14:55:45 |  -94.091129 | -1.40 | -2.40 |
|iter: 135| 14:56:03 |  -92.990295 | -1.37 | -2.27 |
|iter: 136| 14:56:26 |  -93.164470 | -3.07 | -2.55 |
|iter: 137| 14:56:46 |  -92.399014 | -2.42 | -2.71 |
|iter: 138| 14:57:06 |  -93.537122 | -1.10 | -2.63 |
|iter: 139| 14:57:27 |  -95.490072 | -0.77 | -2.75 |
|iter: 140| 14:57:46 |  -93.201428 | -1.28 | -2.67 |
|iter: 141| 14:58:07 |  -93.798783 | -1.93 | -2.59 |
|iter: 142| 14:58:28 |  -95.015840 | -1.24 | -2.56 |
|iter: 143| 14:58:46 |  -93.240377 | -1.31 | -2.49 |
|iter: 144| 14:59:09 |  -93.944591 | -1.66 | -2.45 |
|iter: 145| 14:59:20 |  -93.356061 | -1.68 | -2.51 |
|iter: 146| 14:59:30 |  -93.499217 | -4.43 | -2.40 |
|iter: 147| 14:59:51 |  -94.410284 | -1.21 | -2.54 |
|iter: 148| 15:00:07 |  -94.939897 | -1.75 | -2.46 |
|iter: 149| 15:00:29 |  -93.056519 | -1.33 | -2.38 |
|iter: 150| 15:00:47 |  -92.257664 | -2.29 | -2.45 |
|iter: 151| 15:01:09 |  -93.034917 | -1.89 | -2.37 |
|iter: 152| 15:01:27 |  -93.571668 | -1.90 | -2.56 |
|iter: 153| 15:01:47 |  -94.526493 | -1.36 | -2.70 |
|iter: 154| 15:02:05 |  -93.926980 | -2.25 | -2.62 |
|iter: 155| 15:02:26 |  -93.926844 | -2.97 | -2.54 |
|iter: 156| 15:02:42 |  -94.539321 | -1.98 | -2.46 |
|iter: 157| 15:03:02 |  -93.141897 | -1.19 | -2.38 |
|iter: 158| 15:03:19 |  -93.399709 | -3.62 | -2.44 |
|iter: 159| 15:03:39 |  -93.231367 | -2.96 | -2.62 |
|iter: 160| 15:03:57 |  -93.643386 | -1.95 | -2.60 |
|iter: 161| 15:04:15 |  -94.627185 | -1.31 | -2.65 |
