  __  _  _
 | _ |_)|_||  |
 |__||  | ||/\| - 25.7.1b1

User:   luis-ochoa@luis-pc
Date:   Sun May 24 01:35:57 2026
Arch:   x86_64
Pid:    110841
CWD:    /home/luis-ochoa/Documents/Vscode/py/dft
units:  Angstrom and eV
cores:  22
OpenMP: False

Versions:
  Python: 3.12.3
  ASE:    3.28.0
  Numpy:  2.4.4
  Scipy:  1.17.1
  Libxc:  7.0.0

Paths:
  gpaw:  /tmp/gpaw_master/gpaw
  _gpaw: /tmp/gpaw_master/_gpaw.cpython-312-x86_64-linux-gnu.so
  ase:   /home/luis-ochoa/Documents/Vscode/py/dft/.venv/lib/python3.12/site-packages/ase
  numpy: /home/luis-ochoa/Documents/Vscode/py/dft/.venv/lib/python3.12/site-packages/numpy
  scipy: /home/luis-ochoa/Documents/Vscode/py/dft/.venv/lib/python3.12/site-packages/scipy

Git-hashes:
  gpaw:  33e6740c92
  _gpaw: 33e6740c92

OMP_NUM_THREADS: 


Environment variables:
  GPAW_CPUPY:          False
  GPAW_DEBUG:          False
  GPAW_INITIALIZE_MPI: True
  GPAW_MPI_BACKEND:    cgpaw
  GPAW_NO_C_EXTENSION: False
  GPAW_NO_GPU_MPI:     False
  GPAW_TRACE:          False
  GPAW_USE_GPUS:       False

Input parameters:
  mode=PW(ecut=450.00000000000006),
  convergence={'density': 0.0001, 'eigenstates': 1e-06, 'energy': 1e-05},
  eigensolver=Davidson(niter=3),
  kpts=MonkhorstPack(size=[6, 6, 6], gamma=True),
  maxiter=2000,
  mixer=Mixer(backend='msr1', beta=0.002, nmaxold=15, weight=100),
  occupations=Occupations(name='fermi-dirac', width=0.2),
  parallel={'domain': 1},
  setups={'Sn': ':s,3.5'},
  xc=XC(name='MGGA_X_R2SCAN+MGGA_C_R2SCAN')

Diagonalizing LCAO Hamiltonian
Converting LCAO to pw mode

Atoms  # Å, Bohr magnetons
|   | symbol |        x |        y |        z |    initial magnetic moments |
|---|--------|----------|----------|----------|-----------------------------|
| 0 |     Cs | 3.100000 | 3.100000 | 3.100000 | ( 0.0000,  0.0000,  0.0000) |
| 1 |     Sn | 0.000000 | 0.000000 | 0.000000 | ( 0.0000,  0.0000,  0.0000) |
| 2 |      I | 3.100000 | 0.000000 | 0.000000 | ( 0.0000,  0.0000,  0.0000) |
| 3 |      I | 0.000000 | 3.100000 | 0.000000 | ( 0.0000,  0.0000,  0.0000) |
| 4 |      I | 0.000000 | 0.000000 | 3.100000 | ( 0.0000,  0.0000,  0.0000) |


Unit cell  # Å
| periodic |        x |        y |        z |  lengths |    angles |
|----------|----------|----------|----------|----------|-----------|
|      yes | 6.200000 | 0.000000 | 0.000000 | 6.200000 | 90.000000 |
|      yes | 0.000000 | 6.200000 | 0.000000 | 6.200000 | 90.000000 |
|      yes | 0.000000 | 0.000000 | 6.200000 | 6.200000 | 90.000000 |


Number of symmetries: 48
Symmetry operations  # r_c * U_cc + t_c -> r_c
|    | kind |            matrix            |
|----|------|------------------------------|
|  0 |  E   |  1, 0, 0,  0, 1, 0,  0, 0, 1 |
|  1 |  σ   |  1, 0, 0,  0, 1, 0,  0, 0,-1 |
|  2 |  σ   |  1, 0, 0,  0, 0, 1,  0, 1, 0 |
|  3 |  C4  |  1, 0, 0,  0, 0, 1,  0,-1, 0 |
|  4 |  C4  |  1, 0, 0,  0, 0,-1,  0, 1, 0 |
|  5 |  σ   |  1, 0, 0,  0, 0,-1,  0,-1, 0 |
|  6 |  σ   |  1, 0, 0,  0,-1, 0,  0, 0, 1 |
|  7 |  C2  |  1, 0, 0,  0,-1, 0,  0, 0,-1 |
|  8 |  σ   |  0, 1, 0,  1, 0, 0,  0, 0, 1 |
|  9 |  C2  |  0, 1, 0,  1, 0, 0,  0, 0,-1 |
| 10 |  C3  |  0, 1, 0,  0, 0, 1,  1, 0, 0 |
| 11 |  S6  |  0, 1, 0,  0, 0, 1, -1, 0, 0 |
| 12 |  S6  |  0, 1, 0,  0, 0,-1,  1, 0, 0 |
| 13 |  C3  |  0, 1, 0,  0, 0,-1, -1, 0, 0 |
| 14 |  C4  |  0, 1, 0, -1, 0, 0,  0, 0, 1 |
| 15 |  S4  |  0, 1, 0, -1, 0, 0,  0, 0,-1 |
| 16 |  C3  |  0, 0, 1,  1, 0, 0,  0, 1, 0 |
| 17 |  S6  |  0, 0, 1,  1, 0, 0,  0,-1, 0 |
| 18 |  σ   |  0, 0, 1,  0, 1, 0,  1, 0, 0 |
| 19 |  C4  |  0, 0, 1,  0, 1, 0, -1, 0, 0 |
| 20 |  C2  |  0, 0, 1,  0,-1, 0,  1, 0, 0 |
| 21 |  S4  |  0, 0, 1,  0,-1, 0, -1, 0, 0 |
| 22 |  S6  |  0, 0, 1, -1, 0, 0,  0, 1, 0 |
| 23 |  C3  |  0, 0, 1, -1, 0, 0,  0,-1, 0 |
| 24 |  S6  |  0, 0,-1,  1, 0, 0,  0, 1, 0 |
| 25 |  C3  |  0, 0,-1,  1, 0, 0,  0,-1, 0 |
| 26 |  C4  |  0, 0,-1,  0, 1, 0,  1, 0, 0 |
| 27 |  σ   |  0, 0,-1,  0, 1, 0, -1, 0, 0 |
| 28 |  S4  |  0, 0,-1,  0,-1, 0,  1, 0, 0 |
| 29 |  C2  |  0, 0,-1,  0,-1, 0, -1, 0, 0 |
| 30 |  C3  |  0, 0,-1, -1, 0, 0,  0, 1, 0 |
| 31 |  S6  |  0, 0,-1, -1, 0, 0,  0,-1, 0 |
| 32 |  C4  |  0,-1, 0,  1, 0, 0,  0, 0, 1 |
| 33 |  S4  |  0,-1, 0,  1, 0, 0,  0, 0,-1 |
| 34 |  S6  |  0,-1, 0,  0, 0, 1,  1, 0, 0 |
| 35 |  C3  |  0,-1, 0,  0, 0, 1, -1, 0, 0 |
| 36 |  C3  |  0,-1, 0,  0, 0,-1,  1, 0, 0 |
| 37 |  S6  |  0,-1, 0,  0, 0,-1, -1, 0, 0 |
| 38 |  σ   |  0,-1, 0, -1, 0, 0,  0, 0, 1 |
| 39 |  C2  |  0,-1, 0, -1, 0, 0,  0, 0,-1 |
| 40 |  σ   | -1, 0, 0,  0, 1, 0,  0, 0, 1 |
| 41 |  C2  | -1, 0, 0,  0, 1, 0,  0, 0,-1 |
| 42 |  C2  | -1, 0, 0,  0, 0, 1,  0, 1, 0 |
| 43 |  S4  | -1, 0, 0,  0, 0, 1,  0,-1, 0 |
| 44 |  S4  | -1, 0, 0,  0, 0,-1,  0, 1, 0 |
| 45 |  C2  | -1, 0, 0,  0, 0,-1,  0,-1, 0 |
| 46 |  C2  | -1, 0, 0,  0,-1, 0,  0, 0, 1 |
| 47 |  i   | -1, 0, 0,  0,-1, 0,  0, 0,-1 |

BZ-sampling:
  Number of BZ points: 216
  Number of IBZ points: 20

  Monkhorst-Pack size: [6, 6, 6]
  Monkhorst-Pack shift: [0.08333333333333333, 0.08333333333333333, 0.08333333333333333]

K-points  # in reciprocal-cell coordinates
|     |                                coordinates |     weight |
|-----|--------------------------------------------|------------|
|   0 | (  0.00000000,   0.00000000,   0.00000000) | 0.00462963 |
|   1 | (  0.16666667,   0.00000000,   0.00000000) | 0.02777778 |
|   2 | (  0.16666667,   0.16666667,   0.00000000) | 0.05555556 |
|   3 | (  0.16666667,   0.16666667,   0.16666667) | 0.03703704 |
|   4 | (  0.33333333,   0.00000000,   0.00000000) | 0.02777778 |
|   5 | (  0.33333333,   0.16666667,   0.00000000) | 0.11111111 |
|   6 | (  0.33333333,   0.16666667,   0.16666667) | 0.11111111 |
|   7 | (  0.33333333,   0.33333333,   0.00000000) | 0.05555556 |
|   8 | (  0.33333333,   0.33333333,   0.16666667) | 0.11111111 |
|   9 | (  0.33333333,   0.33333333,   0.33333333) | 0.03703704 |
| ... |                                            |            |
|  19 | (  0.50000000,   0.50000000,   0.50000000) | 0.00462963 |

Plane wave coefficients: 5232
Cutoff: 450.00000000000006 eV

Spin-components: 1 (collinear spins)
Bands:           26
Projectors:      26
Spin-degeneracy: 2
Datatype:        complex128

Memory:
  Storage: CPU
  Wave functions: 43_139_200 bytes (1_960_872 per core)
  Projectors: 49_776_000 bytes (4_525_090 per core)

Parallelization:
  kpt:    11
  domain: 1
  band:   2

Density:
  Valence electrons: 44.0
  Components: 1
  Grid points: [32 32 32]
  Charge: 0.0  # |e|

Potential:
  Grid points: [32 32 32]

species:
  Cs:
    name:    Caesium
    id:      fa822afd343f47335d508b9ee4f394c3
    Z:       55.0
    valence: 9
    core:    46
    charge:  0.0  # [|e|]
    file:    /home/luis-ochoa/Documents/Vscode/py/dft/.venv/lib/python3.12/site-packages/gpaw_data/setups/Cs.PBE.gz
    compensation charges:
      type: gauss
      rc: 0.33  # [Å]
      lmax: 2
    cutoffs:
      filter: 2.06  # [Å]
      core: 2.51  # [Å]
    projectors
    | kind |    occ | energy [eV] | rcut [Å] |
    |------|--------|-------------|----------|
    |   5s |  2.000 |     -26.706 |    1.164 |
    |   6s |  1.000 |      -2.085 |    1.164 |
    |   5p |  6.000 |     -13.523 |    1.058 |
    |    p |        |      13.688 |    1.058 |
    |    d |        |       0.000 |    1.058 |
  
    Using partial waves for Cs as LCAO basis

  Sn:
    name:    Tin
    id:      d1329c6b410f1e0bd923643368775dcd
    Z:       50.0
    valence: 14
    core:    36
    charge:  0.0  # [|e|]
    Hubbard: {U: 3.5,  # eV
              l: 0,
              scale: True}
    file:    /home/luis-ochoa/Documents/Vscode/py/dft/.venv/lib/python3.12/site-packages/gpaw_data/setups/Sn.PBE.gz
    compensation charges:
      type: gauss
      rc: 0.38  # [Å]
      lmax: 2
    cutoffs:
      filter: 2.23  # [Å]
      core: 2.35  # [Å]
    projectors
    | kind |    occ | energy [eV] | rcut [Å] |
    |------|--------|-------------|----------|
    |   5s |  2.000 |     -10.538 |    1.201 |
    |   5p |  2.000 |      -3.696 |    1.270 |
    |   4d | 10.000 |     -25.845 |    1.185 |
    |    s |        |      16.674 |    1.201 |
    |    p |        |      23.515 |    1.270 |
    |    d |        |       1.367 |    1.185 |
  
    Using partial waves for Sn as LCAO basis

  I:
    name:    Iodine
    id:      91405a398e4dfe788ff04f57531604ec
    Z:       53.0
    valence: 7
    core:    46
    charge:  0.0  # [|e|]
    file:    /home/luis-ochoa/Documents/Vscode/py/dft/.venv/lib/python3.12/site-packages/gpaw_data/setups/I.PBE.gz
    compensation charges:
      type: gauss
      rc: 0.37  # [Å]
      lmax: 2
    cutoffs:
      filter: 2.06  # [Å]
      core: 2.90  # [Å]
    projectors
    | kind |    occ | energy [eV] | rcut [Å] |
    |------|--------|-------------|----------|
    |   5s |  2.000 |     -17.382 |    1.164 |
    |   5p |  5.000 |      -7.088 |    1.164 |
    |    s |        |       9.829 |    1.164 |
    |    p |        |      20.123 |    1.164 |
    |    d |        |       0.000 |    1.164 |
  
    Using partial waves for I as LCAO basis

Reference energy: -960433.156792  # eV

eigensolver:
  Davidson
  Converge bands: occupied
  niter=3
  
Density mixing:
  Method: separate
  Backend: msr1
  Linear mixing parameter: 0.002
  old densities: 15
  Width of damping distribution: 1.1
  Damping of long wavelength oscillations: 100
occupation numbers:
  Fermi-Dirac:
    width: 0.2000  # eV
  

<gpaw.new.pw.paw_poisson.SlowPAWPoissonSolver object at 0x7fe39dbe46e0>
xc functional:
  name: MGGA_X_R2SCAN+MGGA_C_R2SCAN with 2 nearest neighbor stencil

Initialization done in: 4.905 s

convergence criteria:
- Maximum integral of absolute [dens]ity change: 0.0001 electrons / valence electron
- Maximum integral of absolute [eigenst]ate change: 1e-06 eV^2 / valence electron
- Maximum [total energy] change in last 3 cyles: 1e-05 eV / valence electron
maximum number of iterations: 2000

SCF iterations
|iter     |     time |      energy | eigst |  dens |
|---------|----------|-------------|-------|-------|
|iter:   1| 01:36:06 |  -99.321278 | -1.18 |       |
|iter:   2| 01:36:13 |  -91.896056 | -1.77 | -1.38 |
|iter:   3| 01:36:22 |  -93.382740 | -1.42 | -1.32 |
|iter:   4| 01:36:31 |  -92.101162 | -2.32 | -1.24 |
|iter:   5| 01:36:39 |  -92.462747 | -1.90 | -1.54 |
|iter:   6| 01:36:47 |  -92.754468 | -1.83 | -1.66 |
|iter:   7| 01:36:56 |  -92.958595 | -1.86 | -1.70 |
|iter:   8| 01:37:05 |  -93.210188 | -1.55 | -1.75 |
|iter:   9| 01:37:13 |  -93.382792 | -1.59 | -1.90 |
|iter:  10| 01:37:21 |  -93.525722 | -1.79 | -2.05 |
|iter:  11| 01:37:29 |  -94.478474 | -0.73 | -2.16 |
|iter:  12| 01:37:37 |  -94.492601 | -1.56 | -2.28 |
|iter:  13| 01:37:45 |  -95.002408 | -1.79 | -2.21 |
|iter:  14| 01:37:53 |  -95.008798 | -2.42 | -2.04 |
|iter:  15| 01:38:02 |  -94.286221 | -2.04 | -1.99 |
|iter:  16| 01:38:10 |  -94.720952 | -2.52 | -2.11 |
|iter:  17| 01:38:19 |  -95.293982 | -2.03 | -2.07 |
|iter:  18| 01:38:28 |  -95.403710 | -2.42 | -1.93 |
|iter:  19| 01:38:37 |  -94.897845 | -2.63 | -1.92 |
|iter:  20| 01:38:45 |  -95.940825 | -1.84 | -1.97 |
|iter:  21| 01:38:53 |  -95.540264 | -3.89 | -1.87 |
|iter:  22| 01:39:01 |  -94.909364 | -2.39 | -1.85 |
|iter:  23| 01:39:09 |  -95.336898 | -2.62 | -1.96 |
|iter:  24| 01:39:17 |  -94.972697 | -2.90 | -1.93 |
|iter:  25| 01:39:26 |  -95.360187 | -2.59 | -2.01 |
|iter:  26| 01:39:34 |  -96.372475 | -2.07 | -2.01 |
|iter:  27| 01:39:43 |  -94.727931 | -1.78 | -1.85 |
|iter:  28| 01:39:52 |  -95.652461 | -2.29 | -2.02 |
|iter:  29| 01:40:00 |  -97.432421 | -1.65 | -1.95 |
|iter:  30| 01:40:09 |  -97.294556 | -2.54 | -1.87 |
|iter:  31| 01:40:17 |  -97.083255 | -4.09 | -1.79 |
|iter:  32| 01:40:25 |  -97.468489 | -3.39 | -1.70 |
|iter:  33| 01:40:32 |  -95.262504 | -2.15 | -1.71 |
|iter:  34| 01:40:40 |  -93.871610 | -2.07 | -1.94 |
|iter:  35| 01:40:49 |  -93.562601 | -1.80 | -2.05 |
|iter:  36| 01:40:57 |  -93.369606 | -2.10 | -2.17 |
|iter:  37| 01:41:06 |  -93.350468 | -2.63 | -2.21 |
|iter:  38| 01:41:14 |  -93.273101 | -3.14 | -2.22 |
|iter:  39| 01:41:23 |  -93.319083 | -4.96 | -2.22 |
|iter:  40| 01:41:31 |  -93.261300 | -2.87 | -2.22 |
|iter:  41| 01:41:39 |  -93.358935 | -2.75 | -2.16 |
|iter:  42| 01:41:47 |  -93.424535 | -2.69 | -2.20 |
|iter:  43| 01:41:55 |  -93.098101 | -2.28 | -2.19 |
|iter:  44| 01:42:03 |  -93.439117 | -1.95 | -2.17 |
|iter:  45| 01:42:12 |  -93.437063 | -2.84 | -2.32 |
|iter:  46| 01:42:20 |  -93.541529 | -2.72 | -2.32 |
|iter:  47| 01:42:29 |  -93.554473 | -3.34 | -2.42 |
|iter:  48| 01:42:38 |  -94.221303 | -1.90 | -2.39 |
|iter:  49| 01:42:47 |  -94.143221 | -3.72 | -2.31 |
|iter:  50| 01:42:55 |  -94.477694 | -2.12 | -2.26 |
|iter:  51| 01:43:03 |  -93.948640 | -1.93 | -2.20 |
|iter:  52| 01:43:11 |  -93.881489 | -2.47 | -2.30 |
|iter:  53| 01:43:19 |  -93.406870 | -1.99 | -2.30 |
|iter:  54| 01:43:28 |  -93.584644 | -3.08 | -2.43 |
|iter:  55| 01:43:36 |  -93.373025 | -2.71 | -2.54 |
|iter:  56| 01:43:45 |  -93.442633 | -4.12 | -2.62 |
|iter:  57| 01:43:54 |  -93.323257 | -2.57 | -2.63 |
|iter:  58| 01:44:02 |  -93.108295 | -2.79 | -2.59 |
|iter:  59| 01:44:10 |  -92.773942 | -2.22 | -2.62 |
|iter:  60| 01:44:18 |  -92.593191 | -2.87 | -2.53 |
|iter:  61| 01:44:26 |  -93.133131 | -1.80 | -2.46 |
|iter:  62| 01:44:34 |  -92.952376 | -2.57 | -2.73 |
|iter:  63| 01:44:42 |  -93.115017 | -2.81 | -2.65 |
|iter:  64| 01:44:51 |  -93.110267 | -3.37 | -2.59 |
|iter:  65| 01:44:59 |  -93.194772 | -3.21 | -2.61 |
|iter:  66| 01:45:08 |  -93.447153 | -2.23 | -2.65 |
|iter:  67| 01:45:17 |  -93.562912 | -2.28 | -2.69 |
|iter:  68| 01:45:25 |  -93.335048 | -2.12 | -2.60 |
|iter:  69| 01:45:33 |  -93.837052 | -1.28 | -2.53 |
|iter:  70| 01:45:41 |  -94.757479 | -1.10 | -2.66 |
|iter:  71| 01:45:49 |  -93.886826 | -1.82 | -2.58 |
|iter:  72| 01:45:56 |  -93.743922 | -2.28 | -2.51 |
|iter:  73| 01:46:05 |  -93.322321 | -1.44 | -2.34 |
|iter:  74| 01:46:14 |  -93.421560 | -2.68 | -2.52 |
|iter:  75| 01:46:23 |  -93.551068 | -2.67 | -2.54 |
|iter:  76| 01:46:31 |  -93.561731 | -3.33 | -2.58 |
|iter:  77| 01:46:40 |  -93.523512 | -4.05 | -2.53 |
|iter:  78| 01:46:49 |  -93.436360 | -2.82 | -2.53 |
|iter:  79| 01:46:57 |  -93.296130 | -2.76 | -2.54 |
|iter:  80| 01:47:05 |  -93.397898 | -2.81 | -2.54 |
|iter:  81| 01:47:13 |  -93.207532 | -2.35 | -2.72 |
|iter:  82| 01:47:21 |  -93.217921 | -3.23 | -2.64 |
|iter:  83| 01:47:30 |  -93.506342 | -1.86 | -2.60 |
|iter:  84| 01:47:39 |  -94.425876 | -1.05 | -2.62 |
|iter:  85| 01:47:48 |  -94.131319 | -2.91 | -2.54 |
|iter:  86| 01:47:57 |  -93.780012 | -2.45 | -2.46 |
|iter:  87| 01:48:05 |  -93.241925 | -1.66 | -2.35 |
|iter:  88| 01:48:13 |  -93.585416 | -1.82 | -2.41 |
|iter:  89| 01:48:21 |  -93.572391 | -2.90 | -2.61 |
|iter:  90| 01:48:29 |  -93.685694 | -2.50 | -2.60 |
|iter:  91| 01:48:37 |  -93.604158 | -3.78 | -2.55 |
|iter:  92| 01:48:45 |  -93.656450 | -3.43 | -2.50 |
|iter:  93| 01:48:54 |  -93.822671 | -2.51 | -2.50 |
|iter:  94| 01:49:02 |  -93.647317 | -2.56 | -2.43 |
|iter:  95| 01:49:11 |  -93.469879 | -2.21 | -2.41 |
|iter:  96| 01:49:19 |  -93.405655 | -2.62 | -2.58 |
|iter:  97| 01:49:28 |  -93.453024 | -4.42 | -2.53 |
|iter:  98| 01:49:36 |  -93.224521 | -2.23 | -2.54 |
|iter:  99| 01:49:44 |  -93.464715 | -1.96 | -2.56 |
|iter: 100| 01:49:52 |  -93.503051 | -2.56 | -2.71 |
|iter: 101| 01:50:00 |  -93.638565 | -2.19 | -2.63 |
|iter: 102| 01:50:08 |  -93.362569 | -1.95 | -2.59 |
|iter: 103| 01:50:16 |  -93.659600 | -1.80 | -2.54 |
|iter: 104| 01:50:25 |  -93.677747 | -2.55 | -2.63 |
|iter: 105| 01:50:34 |  -93.439958 | -2.28 | -2.55 |
|iter: 106| 01:50:42 |  -93.168602 | -2.15 | -2.51 |
|iter: 107| 01:50:50 |  -92.638869 | -2.07 | -2.59 |
|iter: 108| 01:50:58 |  -93.133845 | -1.84 | -2.55 |
|iter: 109| 01:51:06 |  -93.825746 | -1.00 | -2.77 |
|iter: 110| 01:51:14 |  -96.077727 | -0.51 | -2.67 |
|iter: 111| 01:51:22 |  -93.531446 | -1.15 | -2.59 |
|iter: 112| 01:51:31 |  -93.926565 | -3.10 | -2.51 |
|iter: 113| 01:51:39 |  -93.929896 | -4.26 | -2.43 |
|iter: 114| 01:51:48 |  -93.500999 | -1.65 | -2.34 |
|iter: 115| 01:51:58 |  -93.281440 | -2.15 | -2.47 |
|iter: 116| 01:52:06 |  -93.436588 | -2.58 | -2.53 |
|iter: 117| 01:52:14 |  -93.659285 | -2.10 | -2.64 |
|iter: 118| 01:52:22 |  -93.887429 | -1.94 | -2.55 |
|iter: 119| 01:52:30 |  -93.446558 | -1.71 | -2.44 |
|iter: 120| 01:52:38 |  -94.253633 | -1.10 | -2.48 |
|iter: 121| 01:52:46 |  -93.493793 | -1.58 | -2.50 |
|iter: 122| 01:52:55 |  -92.963577 | -1.96 | -2.45 |
|iter: 123| 01:53:03 |  -92.921950 | -2.71 | -2.50 |
|iter: 124| 01:53:12 |  -93.351048 | -1.81 | -2.55 |
|iter: 125| 01:53:21 |  -92.949866 | -2.07 | -2.74 |
|iter: 126| 01:53:30 |  -92.976508 | -3.08 | -2.66 |
|iter: 127| 01:53:38 |  -93.589154 | -1.38 | -2.58 |
|iter: 128| 01:53:46 |  -93.916321 | -1.59 | -2.72 |
|iter: 129| 01:53:54 |  -94.506602 | -1.34 | -2.64 |
|iter: 130| 01:54:02 |  -94.114319 | -3.15 | -2.56 |
|iter: 131| 01:54:10 |  -93.982972 | -3.03 | -2.48 |
|iter: 132| 01:54:19 |  -93.869317 | -2.82 | -2.40 |
|iter: 133| 01:54:27 |  -93.413232 | -1.60 | -2.31 |
|iter: 134| 01:54:36 |  -93.293960 | -2.06 | -2.45 |
|iter: 135| 01:54:45 |  -93.108676 | -2.21 | -2.45 |
|iter: 136| 01:54:53 |  -92.647538 | -2.17 | -2.49 |
|iter: 137| 01:55:01 |  -93.288798 | -1.61 | -2.44 |
|iter: 138| 01:55:09 |  -93.585284 | -1.39 | -2.96 |
|iter: 139| 01:55:17 |  -93.767486 | -1.73 | -2.88 |
|iter: 140| 01:55:25 |  -93.782101 | -2.45 | -2.81 |
|iter: 141| 01:55:33 |  -93.740869 | -3.88 | -2.73 |
|iter: 142| 01:55:41 |  -93.735290 | -4.95 | -2.65 |
|iter: 143| 01:55:50 |  -93.734130 | -5.90 | -2.57 |
|iter: 144| 01:55:59 |  -93.142818 | -1.55 | -2.42 |
|iter: 145| 01:56:07 |  -93.368646 | -2.90 | -2.49 |
|iter: 146| 01:56:16 |  -93.501425 | -2.60 | -2.66 |
|iter: 147| 01:56:24 |  -93.508891 | -3.12 | -2.62 |
|iter: 148| 01:56:32 |  -93.591794 | -2.72 | -2.57 |
|iter: 149| 01:56:40 |  -93.577003 | -3.85 | -2.54 |
|iter: 150| 01:56:49 |  -93.488895 | -3.21 | -2.51 |
|iter: 151| 01:56:57 |  -93.779435 | -2.02 | -2.50 |
|iter: 152| 01:57:06 |  -94.361324 | -1.64 | -2.57 |
|iter: 153| 01:57:15 |  -93.578982 | -1.48 | -2.49 |
|iter: 154| 01:57:24 |  -93.345079 | -1.89 | -2.33 |
