  __  _  _
 | _ |_)|_||  |
 |__||  | ||/\| - 25.7.1b1

User:   luis-ochoa@luis-pc
Date:   Sat May 23 22:59:15 2026
Arch:   x86_64
Pid:    11566
CWD:    /home/luis-ochoa/Documents/Vscode/py/dft
units:  Angstrom and eV
cores:  22
OpenMP: False

Versions:
  Python: 3.12.3
  ASE:    3.28.0
  Numpy:  2.4.4
  Scipy:  1.17.1
  Libxc:  7.0.0

Paths:
  gpaw:  /tmp/gpaw_master/gpaw
  _gpaw: /tmp/gpaw_master/_gpaw.cpython-312-x86_64-linux-gnu.so
  ase:   /home/luis-ochoa/Documents/Vscode/py/dft/.venv/lib/python3.12/site-packages/ase
  numpy: /home/luis-ochoa/Documents/Vscode/py/dft/.venv/lib/python3.12/site-packages/numpy
  scipy: /home/luis-ochoa/Documents/Vscode/py/dft/.venv/lib/python3.12/site-packages/scipy

Git-hashes:
  gpaw:  33e6740c92
  _gpaw: 33e6740c92

OMP_NUM_THREADS: 1


Environment variables:
  GPAW_CPUPY:          False
  GPAW_DEBUG:          False
  GPAW_INITIALIZE_MPI: True
  GPAW_MPI_BACKEND:    cgpaw
  GPAW_NO_C_EXTENSION: False
  GPAW_NO_GPU_MPI:     False
  GPAW_SETUP_PATH:     /home/luis-ochoa/.gpaw/gpaw-setups-24.11.0
  GPAW_TRACE:          False
  GPAW_USE_GPUS:       False

Input parameters:
  mode=PW(ecut=450.00000000000006),
  convergence={'energy': 1e-05, 'eigenstates': 1e-06, 'density': 0.0001},
  eigensolver=Davidson(niter=3),
  kpts=MonkhorstPack(size=[6, 6, 6], gamma=True),
  maxiter=2000,
  mixer=Mixer(backend='msr1', beta=0.002, nmaxold=15, weight=100),
  occupations=Occupations(name='fermi-dirac', width=0.2),
  parallel={'domain': 1},
  setups={'Sn': ':s,3.5'},
  xc=XC(name='MGGA_X_R2SCAN+MGGA_C_R2SCAN')

Diagonalizing LCAO Hamiltonian
Converting LCAO to pw mode

Atoms  # Å, Bohr magnetons
|   | symbol |        x |        y |        z |    initial magnetic moments |
|---|--------|----------|----------|----------|-----------------------------|
| 0 |     Cs | 3.100000 | 3.100000 | 3.100000 | ( 0.0000,  0.0000,  0.0000) |
| 1 |     Sn | 0.000000 | 0.000000 | 0.000000 | ( 0.0000,  0.0000,  0.0000) |
| 2 |      I | 3.100000 | 0.000000 | 0.000000 | ( 0.0000,  0.0000,  0.0000) |
| 3 |      I | 0.000000 | 3.100000 | 0.000000 | ( 0.0000,  0.0000,  0.0000) |
| 4 |      I | 0.000000 | 0.000000 | 3.100000 | ( 0.0000,  0.0000,  0.0000) |


Unit cell  # Å
| periodic |        x |        y |        z |  lengths |    angles |
|----------|----------|----------|----------|----------|-----------|
|      yes | 6.200000 | 0.000000 | 0.000000 | 6.200000 | 90.000000 |
|      yes | 0.000000 | 6.200000 | 0.000000 | 6.200000 | 90.000000 |
|      yes | 0.000000 | 0.000000 | 6.200000 | 6.200000 | 90.000000 |


Number of symmetries: 48
Symmetry operations  # r_c * U_cc + t_c -> r_c
|    | kind |            matrix            |
|----|------|------------------------------|
|  0 |  E   |  1, 0, 0,  0, 1, 0,  0, 0, 1 |
|  1 |  σ   |  1, 0, 0,  0, 1, 0,  0, 0,-1 |
|  2 |  σ   |  1, 0, 0,  0, 0, 1,  0, 1, 0 |
|  3 |  C4  |  1, 0, 0,  0, 0, 1,  0,-1, 0 |
|  4 |  C4  |  1, 0, 0,  0, 0,-1,  0, 1, 0 |
|  5 |  σ   |  1, 0, 0,  0, 0,-1,  0,-1, 0 |
|  6 |  σ   |  1, 0, 0,  0,-1, 0,  0, 0, 1 |
|  7 |  C2  |  1, 0, 0,  0,-1, 0,  0, 0,-1 |
|  8 |  σ   |  0, 1, 0,  1, 0, 0,  0, 0, 1 |
|  9 |  C2  |  0, 1, 0,  1, 0, 0,  0, 0,-1 |
| 10 |  C3  |  0, 1, 0,  0, 0, 1,  1, 0, 0 |
| 11 |  S6  |  0, 1, 0,  0, 0, 1, -1, 0, 0 |
| 12 |  S6  |  0, 1, 0,  0, 0,-1,  1, 0, 0 |
| 13 |  C3  |  0, 1, 0,  0, 0,-1, -1, 0, 0 |
| 14 |  C4  |  0, 1, 0, -1, 0, 0,  0, 0, 1 |
| 15 |  S4  |  0, 1, 0, -1, 0, 0,  0, 0,-1 |
| 16 |  C3  |  0, 0, 1,  1, 0, 0,  0, 1, 0 |
| 17 |  S6  |  0, 0, 1,  1, 0, 0,  0,-1, 0 |
| 18 |  σ   |  0, 0, 1,  0, 1, 0,  1, 0, 0 |
| 19 |  C4  |  0, 0, 1,  0, 1, 0, -1, 0, 0 |
| 20 |  C2  |  0, 0, 1,  0,-1, 0,  1, 0, 0 |
| 21 |  S4  |  0, 0, 1,  0,-1, 0, -1, 0, 0 |
| 22 |  S6  |  0, 0, 1, -1, 0, 0,  0, 1, 0 |
| 23 |  C3  |  0, 0, 1, -1, 0, 0,  0,-1, 0 |
| 24 |  S6  |  0, 0,-1,  1, 0, 0,  0, 1, 0 |
| 25 |  C3  |  0, 0,-1,  1, 0, 0,  0,-1, 0 |
| 26 |  C4  |  0, 0,-1,  0, 1, 0,  1, 0, 0 |
| 27 |  σ   |  0, 0,-1,  0, 1, 0, -1, 0, 0 |
| 28 |  S4  |  0, 0,-1,  0,-1, 0,  1, 0, 0 |
| 29 |  C2  |  0, 0,-1,  0,-1, 0, -1, 0, 0 |
| 30 |  C3  |  0, 0,-1, -1, 0, 0,  0, 1, 0 |
| 31 |  S6  |  0, 0,-1, -1, 0, 0,  0,-1, 0 |
| 32 |  C4  |  0,-1, 0,  1, 0, 0,  0, 0, 1 |
| 33 |  S4  |  0,-1, 0,  1, 0, 0,  0, 0,-1 |
| 34 |  S6  |  0,-1, 0,  0, 0, 1,  1, 0, 0 |
| 35 |  C3  |  0,-1, 0,  0, 0, 1, -1, 0, 0 |
| 36 |  C3  |  0,-1, 0,  0, 0,-1,  1, 0, 0 |
| 37 |  S6  |  0,-1, 0,  0, 0,-1, -1, 0, 0 |
| 38 |  σ   |  0,-1, 0, -1, 0, 0,  0, 0, 1 |
| 39 |  C2  |  0,-1, 0, -1, 0, 0,  0, 0,-1 |
| 40 |  σ   | -1, 0, 0,  0, 1, 0,  0, 0, 1 |
| 41 |  C2  | -1, 0, 0,  0, 1, 0,  0, 0,-1 |
| 42 |  C2  | -1, 0, 0,  0, 0, 1,  0, 1, 0 |
| 43 |  S4  | -1, 0, 0,  0, 0, 1,  0,-1, 0 |
| 44 |  S4  | -1, 0, 0,  0, 0,-1,  0, 1, 0 |
| 45 |  C2  | -1, 0, 0,  0, 0,-1,  0,-1, 0 |
| 46 |  C2  | -1, 0, 0,  0,-1, 0,  0, 0, 1 |
| 47 |  i   | -1, 0, 0,  0,-1, 0,  0, 0,-1 |

BZ-sampling:
  Number of BZ points: 216
  Number of IBZ points: 20

  Monkhorst-Pack size: [6, 6, 6]
  Monkhorst-Pack shift: [0.08333333333333333, 0.08333333333333333, 0.08333333333333333]

K-points  # in reciprocal-cell coordinates
|     |                                coordinates |     weight |
|-----|--------------------------------------------|------------|
|   0 | (  0.00000000,   0.00000000,   0.00000000) | 0.00462963 |
|   1 | (  0.16666667,   0.00000000,   0.00000000) | 0.02777778 |
|   2 | (  0.16666667,   0.16666667,   0.00000000) | 0.05555556 |
|   3 | (  0.16666667,   0.16666667,   0.16666667) | 0.03703704 |
|   4 | (  0.33333333,   0.00000000,   0.00000000) | 0.02777778 |
|   5 | (  0.33333333,   0.16666667,   0.00000000) | 0.11111111 |
|   6 | (  0.33333333,   0.16666667,   0.16666667) | 0.11111111 |
|   7 | (  0.33333333,   0.33333333,   0.00000000) | 0.05555556 |
|   8 | (  0.33333333,   0.33333333,   0.16666667) | 0.11111111 |
|   9 | (  0.33333333,   0.33333333,   0.33333333) | 0.03703704 |
| ... |                                            |            |
|  19 | (  0.50000000,   0.50000000,   0.50000000) | 0.00462963 |

Plane wave coefficients: 5232
Cutoff: 450.00000000000006 eV

Spin-components: 1 (collinear spins)
Bands:           26
Projectors:      26
Spin-degeneracy: 2
Datatype:        complex128

Memory:
  Storage: CPU
  Wave functions: 43_139_200 bytes (1_960_872 per core)
  Projectors: 49_776_000 bytes (4_525_090 per core)

Parallelization:
  kpt:    11
  domain: 1
  band:   2

Density:
  Valence electrons: 44.0
  Components: 1
  Grid points: [32 32 32]
  Charge: 0.0  # |e|

Potential:
  Grid points: [32 32 32]

species:
  Cs:
    name:    Caesium
    id:      fa822afd343f47335d508b9ee4f394c3
    Z:       55.0
    valence: 9
    core:    46
    charge:  0.0  # [|e|]
    file:    /home/luis-ochoa/.gpaw/gpaw-setups-24.11.0/Cs.PBE.gz
    compensation charges:
      type: gauss
      rc: 0.33  # [Å]
      lmax: 2
    cutoffs:
      filter: 2.06  # [Å]
      core: 2.51  # [Å]
    projectors
    | kind |    occ | energy [eV] | rcut [Å] |
    |------|--------|-------------|----------|
    |   5s |  2.000 |     -26.706 |    1.164 |
    |   6s |  1.000 |      -2.085 |    1.164 |
    |   5p |  6.000 |     -13.523 |    1.058 |
    |    p |        |      13.688 |    1.058 |
    |    d |        |       0.000 |    1.058 |
  
    Using partial waves for Cs as LCAO basis

  Sn:
    name:    Tin
    id:      d1329c6b410f1e0bd923643368775dcd
    Z:       50.0
    valence: 14
    core:    36
    charge:  0.0  # [|e|]
    Hubbard: {U: 3.5,  # eV
              l: 0,
              scale: True}
    file:    /home/luis-ochoa/.gpaw/gpaw-setups-24.11.0/Sn.PBE.gz
    compensation charges:
      type: gauss
      rc: 0.38  # [Å]
      lmax: 2
    cutoffs:
      filter: 2.23  # [Å]
      core: 2.35  # [Å]
    projectors
    | kind |    occ | energy [eV] | rcut [Å] |
    |------|--------|-------------|----------|
    |   5s |  2.000 |     -10.538 |    1.201 |
    |   5p |  2.000 |      -3.696 |    1.270 |
    |   4d | 10.000 |     -25.845 |    1.185 |
    |    s |        |      16.674 |    1.201 |
    |    p |        |      23.515 |    1.270 |
    |    d |        |       1.367 |    1.185 |
  
    Using partial waves for Sn as LCAO basis

  I:
    name:    Iodine
    id:      91405a398e4dfe788ff04f57531604ec
    Z:       53.0
    valence: 7
    core:    46
    charge:  0.0  # [|e|]
    file:    /home/luis-ochoa/.gpaw/gpaw-setups-24.11.0/I.PBE.gz
    compensation charges:
      type: gauss
      rc: 0.37  # [Å]
      lmax: 2
    cutoffs:
      filter: 2.06  # [Å]
      core: 2.90  # [Å]
    projectors
    | kind |    occ | energy [eV] | rcut [Å] |
    |------|--------|-------------|----------|
    |   5s |  2.000 |     -17.382 |    1.164 |
    |   5p |  5.000 |      -7.088 |    1.164 |
    |    s |        |       9.829 |    1.164 |
    |    p |        |      20.123 |    1.164 |
    |    d |        |       0.000 |    1.164 |
  
    Using partial waves for I as LCAO basis

Reference energy: -960433.156792  # eV

eigensolver:
  Davidson
  Converge bands: occupied
  niter=3
  
Density mixing:
  Method: separate
  Backend: msr1
  Linear mixing parameter: 0.002
  old densities: 15
  Width of damping distribution: 1.1
  Damping of long wavelength oscillations: 100
occupation numbers:
  Fermi-Dirac:
    width: 0.2000  # eV
  

<gpaw.new.pw.paw_poisson.SlowPAWPoissonSolver object at 0x7effa416e210>
xc functional:
  name: MGGA_X_R2SCAN+MGGA_C_R2SCAN with 2 nearest neighbor stencil

Initialization done in: 2.239 s

convergence criteria:
- Maximum [total energy] change in last 3 cyles: 1e-05 eV / valence electron
- Maximum integral of absolute [eigenst]ate change: 1e-06 eV^2 / valence electron
- Maximum integral of absolute [dens]ity change: 0.0001 electrons / valence electron
maximum number of iterations: 2000

SCF iterations
|iter     |     time |      energy | eigst |  dens |
|---------|----------|-------------|-------|-------|
|iter:   1| 22:59:20 |  -99.321278 | -1.18 |       |
|iter:   2| 22:59:22 |  -91.896056 | -1.77 | -1.38 |
|iter:   3| 22:59:25 |  -93.382740 | -1.42 | -1.32 |
|iter:   4| 22:59:28 |  -92.101162 | -2.32 | -1.24 |
|iter:   5| 22:59:31 |  -92.462747 | -1.90 | -1.54 |
|iter:   6| 22:59:33 |  -92.754468 | -1.83 | -1.66 |
|iter:   7| 22:59:36 |  -92.958595 | -1.86 | -1.70 |
|iter:   8| 22:59:39 |  -93.210188 | -1.55 | -1.75 |
|iter:   9| 22:59:41 |  -93.382792 | -1.59 | -1.90 |
|iter:  10| 22:59:44 |  -93.525722 | -1.79 | -2.05 |
|iter:  11| 22:59:47 |  -94.478474 | -0.73 | -2.16 |
|iter:  12| 22:59:50 |  -94.492601 | -1.56 | -2.28 |
|iter:  13| 22:59:53 |  -95.002408 | -1.79 | -2.21 |
|iter:  14| 22:59:55 |  -95.008798 | -2.42 | -2.04 |
|iter:  15| 22:59:58 |  -94.286221 | -2.04 | -1.99 |
|iter:  16| 23:00:01 |  -94.720952 | -2.52 | -2.11 |
|iter:  17| 23:00:04 |  -95.293982 | -2.03 | -2.07 |
|iter:  18| 23:00:07 |  -95.403710 | -2.42 | -1.93 |
|iter:  19| 23:00:10 |  -94.897845 | -2.63 | -1.92 |
|iter:  20| 23:00:13 |  -95.940825 | -1.84 | -1.97 |
|iter:  21| 23:00:16 |  -95.540264 | -3.89 | -1.87 |
|iter:  22| 23:00:18 |  -94.909363 | -2.39 | -1.85 |
|iter:  23| 23:00:21 |  -95.336898 | -2.62 | -1.96 |
|iter:  24| 23:00:24 |  -94.972697 | -2.90 | -1.93 |
|iter:  25| 23:00:28 |  -95.360187 | -2.59 | -2.01 |
|iter:  26| 23:00:30 |  -96.372475 | -2.07 | -2.01 |
|iter:  27| 23:00:34 |  -94.727932 | -1.78 | -1.85 |
|iter:  28| 23:00:36 |  -95.652465 | -2.29 | -2.02 |
|iter:  29| 23:00:40 |  -97.432433 | -1.65 | -1.95 |
|iter:  30| 23:00:43 |  -97.294564 | -2.54 | -1.87 |
|iter:  31| 23:00:46 |  -97.083265 | -4.09 | -1.79 |
|iter:  32| 23:00:49 |  -97.468511 | -3.39 | -1.70 |
|iter:  33| 23:00:52 |  -95.262499 | -2.15 | -1.71 |
|iter:  34| 23:00:55 |  -93.871373 | -2.07 | -1.94 |
|iter:  35| 23:00:58 |  -93.563251 | -1.80 | -2.05 |
|iter:  36| 23:01:01 |  -93.369230 | -2.10 | -2.17 |
|iter:  37| 23:01:04 |  -93.346945 | -2.63 | -2.21 |
|iter:  38| 23:01:07 |  -93.297961 | -3.11 | -2.22 |
|iter:  39| 23:01:10 |  -93.337443 | -4.19 | -2.22 |
|iter:  40| 23:01:14 |  -93.254371 | -3.75 | -2.22 |
|iter:  41| 23:01:16 |  -93.330803 | -2.57 | -2.17 |
|iter:  42| 23:01:20 |  -93.384861 | -4.34 | -2.23 |
|iter:  43| 23:01:23 |  -93.232185 | -2.22 | -2.21 |
|iter:  44| 23:01:26 |  -93.452765 | -1.55 | -2.13 |
|iter:  45| 23:01:29 |  -93.184357 | -2.82 | -2.27 |
|iter:  46| 23:01:32 |  -94.433457 | -1.39 | -2.30 |
|iter:  47| 23:01:35 |  -93.664103 | -1.93 | -2.27 |
|iter:  48| 23:01:38 |  -95.360074 | -0.98 | -2.25 |
|iter:  49| 23:01:41 |  -93.829070 | -1.41 | -2.10 |
|iter:  50| 23:01:44 |  -92.669956 | -1.19 | -2.19 |
|iter:  51| 23:01:47 |  -94.409020 | -0.13 | -2.20 |
|iter:  52| 23:01:50 |  -97.437148 | -0.53 | -2.60 |
|iter:  53| 23:01:54 |  -95.855196 | -2.65 | -2.52 |
|iter:  54| 23:01:57 |  -96.362630 | -2.83 | -2.44 |
|iter:  55| 23:02:00 |  -95.332781 | -2.23 | -2.36 |
|iter:  56| 23:02:02 |  -96.870300 | -1.80 | -2.28 |
|iter:  57| 23:02:05 |  -95.054095 | -1.72 | -2.20 |
|iter:  58| 23:02:09 |  -97.103115 | -1.52 | -2.12 |
|iter:  59| 23:02:12 |  -95.011617 | -1.61 | -2.04 |
|iter:  60| 23:02:15 |  -94.978255 | -2.13 | -1.88 |
|iter:  61| 23:02:17 |  -94.300427 | -2.08 | -1.90 |
|iter:  62| 23:02:21 |  -93.739805 | -2.07 | -2.02 |
|iter:  63| 23:02:23 |  -93.849804 | -2.95 | -2.25 |
|iter:  64| 23:02:26 |  -93.899237 | -4.75 | -2.34 |
|iter:  65| 23:02:29 |  -94.010861 | -3.12 | -2.35 |
|iter:  66| 23:02:32 |  -93.818865 | -2.73 | -2.32 |
|iter:  67| 23:02:35 |  -93.836535 | -3.47 | -2.33 |
|iter:  68| 23:02:38 |  -93.603346 | -2.77 | -2.38 |
|iter:  69| 23:02:41 |  -93.776678 | -2.80 | -2.45 |
|iter:  70| 23:02:44 |  -93.512382 | -2.57 | -2.43 |
|iter:  71| 23:02:47 |  -93.863586 | -2.13 | -2.46 |
|iter:  72| 23:02:50 |  -93.674848 | -2.82 | -2.43 |
|iter:  73| 23:02:53 |  -93.734951 | -4.17 | -2.43 |
|iter:  74| 23:02:56 |  -93.482381 | -2.39 | -2.49 |
|iter:  75| 23:02:59 |  -93.313737 | -2.79 | -2.53 |
|iter:  76| 23:03:02 |  -93.118441 | -1.98 | -2.56 |
|iter:  77| 23:03:05 |  -93.174159 | -3.14 | -2.55 |
|iter:  78| 23:03:08 |  -93.104875 | -2.85 | -2.61 |
|iter:  79| 23:03:11 |  -93.001708 | -3.42 | -2.54 |
|iter:  80| 23:03:13 |  -92.642161 | -2.36 | -2.54 |
|iter:  81| 23:03:17 |  -93.189688 | -1.88 | -2.37 |
|iter:  82| 23:03:19 |  -93.272578 | -2.23 | -2.77 |
|iter:  83| 23:03:22 |  -93.366342 | -2.45 | -2.76 |
|iter:  84| 23:03:25 |  -93.366191 | -3.13 | -2.70 |
|iter:  85| 23:03:28 |  -93.349979 | -4.93 | -2.71 |
|iter:  86| 23:03:31 |  -93.456089 | -2.86 | -2.67 |
|iter:  87| 23:03:34 |  -93.494899 | -3.10 | -2.68 |
|iter:  88| 23:03:37 |  -93.341686 | -2.54 | -2.64 |
|iter:  89| 23:03:40 |  -93.284186 | -2.86 | -2.63 |
|iter:  90| 23:03:42 |  -93.346594 | -3.42 | -2.58 |
|iter:  91| 23:03:45 |  -93.272805 | -3.12 | -2.68 |
|iter:  92| 23:03:48 |  -93.401388 | -2.44 | -2.58 |
|iter:  93| 23:03:51 |  -93.560996 | -2.18 | -2.71 |
|iter:  94| 23:03:54 |  -93.413098 | -2.60 | -2.62 |
|iter:  95| 23:03:58 |  -93.459980 | -4.36 | -2.52 |
|iter:  96| 23:04:02 |  -93.557223 | -2.93 | -2.58 |
|iter:  97| 23:04:05 |  -93.381810 | -2.26 | -2.58 |
|iter:  98| 23:04:08 |  -93.471873 | -3.52 | -2.60 |
|iter:  99| 23:04:12 |  -93.347856 | -2.67 | -2.58 |
|iter: 100| 23:04:15 |  -93.178279 | -2.61 | -2.55 |
|iter: 101| 23:04:19 |  -93.429514 | -1.98 | -2.55 |
|iter: 102| 23:04:22 |  -93.380996 | -3.97 | -2.84 |
|iter: 103| 23:04:25 |  -93.441771 | -2.96 | -2.76 |
|iter: 104| 23:04:29 |  -93.269157 | -2.34 | -2.61 |
|iter: 105| 23:04:32 |  -93.617870 | -1.53 | -2.54 |
|iter: 106| 23:04:36 |  -93.234489 | -1.85 | -2.80 |
|iter: 107| 23:04:39 |  -93.288763 | -2.90 | -2.72 |
|iter: 108| 23:04:42 |  -93.618204 | -1.59 | -2.59 |
|iter: 109| 23:04:45 |  -94.113173 | -1.43 | -2.63 |
|iter: 110| 23:04:48 |  -94.548718 | -1.69 | -2.55 |
|iter: 111| 23:04:50 |  -94.532635 | -2.36 | -2.47 |
|iter: 112| 23:04:54 |  -94.626874 | -3.00 | -2.39 |
|iter: 113| 23:04:56 |  -94.627207 | -3.52 | -2.31 |
|iter: 114| 23:04:59 |  -95.126783 | -2.14 | -2.23 |
|iter: 115| 23:05:02 |  -95.072499 | -3.17 | -2.15 |
|iter: 116| 23:05:05 |  -95.096055 | -4.22 | -2.07 |
|iter: 117| 23:05:08 |  -93.443864 | -1.21 | -1.97 |
|iter: 118| 23:05:11 |  -93.775421 | -3.12 | -2.32 |
|iter: 119| 23:05:15 |  -93.134684 | -1.39 | -2.39 |
|iter: 120| 23:05:19 |  -93.873665 | -0.97 | -2.40 |
|iter: 121| 23:05:22 |  -94.948242 | -1.12 | -2.50 |
|iter: 122| 23:05:25 |  -95.160356 | -1.69 | -2.42 |
|iter: 123| 23:05:29 |  -95.186421 | -2.56 | -2.34 |
|iter: 124| 23:05:32 |  -95.188497 | -3.17 | -2.26 |
|iter: 125| 23:05:35 |  -95.187191 | -4.03 | -2.18 |
|iter: 126| 23:05:39 |  -95.074379 | -3.84 | -2.10 |
|iter: 127| 23:05:42 |  -93.766424 | -1.46 | -1.96 |
|iter: 128| 23:05:46 |  -93.832973 | -2.13 | -2.23 |
|iter: 129| 23:05:49 |  -93.682064 | -2.36 | -2.26 |
|iter: 130| 23:05:53 |  -94.541915 | -1.22 | -2.44 |
|iter: 131| 23:05:56 |  -94.167743 | -3.36 | -2.30 |
|iter: 132| 23:05:59 |  -93.939103 | -2.73 | -2.25 |
|iter: 133| 23:06:01 |  -94.276372 | -2.26 | -2.31 |
|iter: 134| 23:06:04 |  -94.560300 | -2.35 | -2.30 |
|iter: 135| 23:06:07 |  -95.033853 | -2.07 | -2.17 |
|iter: 136| 23:06:10 |  -94.880257 | -4.14 | -2.02 |
|iter: 137| 23:06:13 |  -94.891887 | -4.90 | -1.99 |
|iter: 138| 23:06:16 |  -95.284859 | -2.56 | -1.98 |
|iter: 139| 23:06:19 |  -95.666317 | -2.58 | -1.91 |
|iter: 140| 23:06:22 |  -95.937355 | -2.60 | -1.95 |
|iter: 141| 23:06:25 |  -95.457781 | -2.90 | -1.90 |
|iter: 142| 23:06:29 |  -94.643133 | -2.27 | -1.94 |
|iter: 143| 23:06:32 |  -94.722472 | -3.26 | -2.11 |
|iter: 144| 23:06:35 |  -93.452781 | -1.65 | -2.09 |
|iter: 145| 23:06:39 |  -93.270103 | -1.94 | -2.38 |
|iter: 146| 23:06:42 |  -93.109216 | -2.04 | -2.51 |
|iter: 147| 23:06:46 |  -92.975103 | -2.46 | -2.54 |
|iter: 148| 23:06:49 |  -93.055469 | -4.26 | -2.52 |
|iter: 149| 23:06:52 |  -92.818078 | -2.61 | -2.55 |
|iter: 150| 23:06:56 |  -93.022607 | -2.59 | -2.42 |
|iter: 151| 23:06:59 |  -92.897824 | -3.13 | -2.43 |
|iter: 152| 23:07:03 |  -92.959573 | -3.64 | -2.48 |
|iter: 153| 23:07:06 |  -93.086951 | -2.96 | -2.52 |
|iter: 154| 23:07:09 |  -93.053913 | -3.17 | -2.61 |
|iter: 155| 23:07:13 |  -93.020983 | -4.18 | -2.47 |
|iter: 156| 23:07:16 |  -93.405082 | -2.32 | -2.51 |
|iter: 157| 23:07:19 |  -93.495797 | -2.33 | -2.70 |
|iter: 158| 23:07:23 |  -93.836648 | -1.81 | -2.65 |
|iter: 159| 23:07:26 |  -93.358398 | -1.54 | -2.52 |
|iter: 160| 23:07:30 |  -93.343006 | -2.23 | -2.52 |
|iter: 161| 23:07:32 |  -93.686085 | -1.68 | -2.66 |
|iter: 162| 23:07:35 |  -93.874997 | -1.96 | -2.69 |
|iter: 163| 23:07:38 |  -93.381525 | -1.55 | -2.51 |
|iter: 164| 23:07:41 |  -92.992041 | -2.14 | -2.54 |
|iter: 165| 23:07:44 |  -92.244149 | -1.93 | -2.54 |
|iter: 166| 23:07:47 |  -92.005243 | -2.74 | -2.46 |
|iter: 167| 23:07:49 |  -92.068424 | -3.99 | -2.38 |
|iter: 168| 23:07:52 |  -93.167608 | -1.29 | -2.29 |
|iter: 169| 23:07:56 |  -93.225313 | -1.97 | -2.72 |
|iter: 170| 23:07:59 |  -93.310977 | -2.58 | -2.83 |
|iter: 171| 23:08:02 |  -92.809440 | -2.03 | -2.81 |
|iter: 172| 23:08:06 |  -93.181493 | -2.13 | -2.73 |
|iter: 173| 23:08:09 |  -93.156388 | -3.74 | -2.72 |
|iter: 174| 23:08:13 |  -93.228059 | -3.10 | -2.69 |
|iter: 175| 23:08:16 |  -93.437936 | -2.43 | -2.71 |
|iter: 176| 23:08:20 |  -93.781906 | -1.71 | -2.70 |
|iter: 177| 23:08:23 |  -93.367606 | -1.71 | -2.58 |
|iter: 178| 23:08:26 |  -93.659231 | -2.07 | -2.50 |
|iter: 179| 23:08:30 |  -93.698201 | -2.62 | -2.55 |
|iter: 180| 23:08:33 |  -93.302844 | -1.83 | -2.51 |
|iter: 181| 23:08:37 |  -93.074861 | -2.27 | -2.54 |
|iter: 182| 23:08:40 |  -93.487786 | -1.63 | -2.62 |
|iter: 183| 23:08:44 |  -93.787559 | -1.50 | -2.83 |
|iter: 184| 23:08:47 |  -93.928182 | -1.95 | -2.75 |
|iter: 185| 23:08:50 |  -93.713262 | -2.83 | -2.67 |
|iter: 186| 23:08:54 |  -93.503336 | -2.28 | -2.59 |
|iter: 187| 23:08:57 |  -93.265531 | -2.03 | -2.52 |
|iter: 188| 23:09:01 |  -93.095573 | -2.45 | -2.60 |
|iter: 189| 23:09:03 |  -93.394798 | -1.98 | -2.63 |
|iter: 190| 23:09:06 |  -93.380960 | -3.10 | -2.84 |
|iter: 191| 23:09:09 |  -93.148745 | -2.43 | -2.70 |
|iter: 192| 23:09:12 |  -93.492592 | -1.59 | -2.63 |
|iter: 193| 23:09:15 |  -93.388154 | -3.52 | -2.83 |
|iter: 194| 23:09:18 |  -93.449148 | -3.10 | -2.75 |
|iter: 195| 23:09:20 |  -93.820681 | -1.69 | -2.61 |
|iter: 196| 23:09:23 |  -93.374505 | -1.61 | -2.53 |
|iter: 197| 23:09:27 |  -93.147853 | -2.30 | -2.51 |
|iter: 198| 23:09:30 |  -93.622379 | -1.31 | -2.54 |
|iter: 199| 23:09:33 |  -93.909570 | -1.57 | -2.77 |
|iter: 200| 23:09:37 |  -93.763098 | -3.80 | -2.69 |
|iter: 201| 23:09:40 |  -93.587117 | -2.55 | -2.61 |
|iter: 202| 23:09:44 |  -93.291667 | -1.93 | -2.45 |
|iter: 203| 23:09:47 |  -93.383612 | -3.84 | -2.57 |
|iter: 204| 23:09:51 |  -93.548809 | -2.32 | -2.64 |
|iter: 205| 23:09:54 |  -93.468615 | -3.46 | -2.59 |
|iter: 206| 23:09:57 |  -93.269958 | -2.51 | -2.55 |
|iter: 207| 23:10:01 |  -93.012679 | -2.64 | -2.55 |
|iter: 208| 23:10:05 |  -93.333000 | -1.99 | -2.54 |
|iter: 209| 23:10:08 |  -93.688411 | -1.46 | -2.73 |
|iter: 210| 23:10:11 |  -93.449366 | -2.46 | -2.60 |
|iter: 211| 23:10:15 |  -93.284100 | -2.50 | -2.46 |
|iter: 212| 23:10:18 |  -93.719297 | -1.34 | -2.59 |
|iter: 213| 23:10:21 |  -94.197176 | -1.44 | -2.69 |
|iter: 214| 23:10:25 |  -93.707546 | -2.08 | -2.61 |
|iter: 215| 23:10:28 |  -94.169113 | -1.69 | -2.53 |
|iter: 216| 23:10:31 |  -93.405750 | -1.30 | -2.46 |
|iter: 217| 23:10:35 |  -93.336082 | -1.97 | -2.33 |
|iter: 218| 23:10:38 |  -93.354153 | -2.82 | -2.52 |
|iter: 219| 23:10:42 |  -93.387387 | -4.76 | -2.59 |
|iter: 220| 23:10:44 |  -93.523330 | -2.70 | -2.61 |
|iter: 221| 23:10:47 |  -93.444690 | -3.14 | -2.64 |
|iter: 222| 23:10:50 |  -93.527446 | -2.93 | -2.59 |
|iter: 223| 23:10:53 |  -93.586221 | -3.13 | -2.58 |
|iter: 224| 23:10:56 |  -93.447471 | -2.51 | -2.55 |
|iter: 225| 23:10:59 |  -93.354199 | -2.80 | -2.55 |
|iter: 226| 23:11:01 |  -93.339180 | -3.32 | -2.55 |
|iter: 227| 23:11:04 |  -93.358691 | -5.29 | -2.62 |
|iter: 228| 23:11:07 |  -93.401359 | -3.82 | -2.63 |
|iter: 229| 23:11:11 |  -93.526444 | -2.97 | -2.60 |
|iter: 230| 23:11:14 |  -93.723679 | -2.03 | -2.56 |
|iter: 231| 23:11:18 |  -93.509426 | -2.44 | -2.51 |
|iter: 232| 23:11:21 |  -93.357219 | -2.72 | -2.51 |
|iter: 233| 23:11:24 |  -93.091720 | -2.19 | -2.51 |
|iter: 234| 23:11:28 |  -93.516845 | -1.44 | -2.59 |
|iter: 235| 23:11:31 |  -93.844353 | -1.48 | -2.89 |
|iter: 236| 23:11:34 |  -94.230410 | -1.58 | -2.81 |
|iter: 237| 23:11:38 |  -93.124480 | -0.94 | -2.73 |
|iter: 238| 23:11:41 |  -93.829621 | -1.38 | -2.66 |
|iter: 239| 23:11:45 |  -93.339458 | -1.60 | -2.57 |
|iter: 240| 23:11:48 |  -93.446640 | -3.37 | -2.49 |
|iter: 241| 23:11:51 |  -93.119656 | -1.92 | -2.51 |
|iter: 242| 23:11:55 |  -92.952531 | -2.58 | -2.53 |
|iter: 243| 23:11:58 |  -93.281622 | -2.08 | -2.57 |
|iter: 244| 23:12:02 |  -93.915856 | -1.00 | -2.78 |
|iter: 245| 23:12:05 |  -94.511143 | -1.24 | -2.66 |
|iter: 246| 23:12:08 |  -93.700176 | -1.72 | -2.58 |
|iter: 247| 23:12:12 |  -93.865696 | -3.96 | -2.50 |
|iter: 248| 23:12:15 |  -93.301706 | -1.38 | -2.38 |
|iter: 249| 23:12:19 |  -93.586736 | -2.66 | -2.46 |
|iter: 250| 23:12:22 |  -93.483523 | -2.91 | -2.37 |
|iter: 251| 23:12:25 |  -93.443929 | -3.14 | -2.44 |
|iter: 252| 23:12:28 |  -93.600516 | -2.36 | -2.42 |
|iter: 253| 23:12:31 |  -94.072800 | -1.70 | -2.46 |
|iter: 254| 23:12:33 |  -93.530992 | -1.62 | -2.40 |
|iter: 255| 23:12:36 |  -93.234893 | -2.01 | -2.40 |
|iter: 256| 23:12:39 |  -93.006299 | -2.30 | -2.49 |
|iter: 257| 23:12:42 |  -92.093044 | -1.79 | -2.52 |
|iter: 258| 23:12:45 |  -92.106518 | -2.85 | -2.44 |
|iter: 259| 23:12:48 |  -93.101090 | -1.44 | -2.34 |
|iter: 260| 23:12:51 |  -93.537487 | -1.20 | -2.74 |
|iter: 261| 23:12:54 |  -93.798396 | -1.53 | -2.64 |
|iter: 262| 23:12:58 |  -93.317389 | -1.64 | -2.49 |
|iter: 263| 23:13:01 |  -92.831450 | -2.07 | -2.47 |
|iter: 264| 23:13:05 |  -93.359281 | -1.56 | -2.55 |
|iter: 265| 23:13:08 |  -94.053490 | -0.95 | -2.83 |
|iter: 266| 23:13:11 |  -94.667415 | -1.22 | -2.75 |
|iter: 267| 23:13:15 |  -93.908648 | -1.97 | -2.67 |
|iter: 268| 23:13:18 |  -94.004899 | -3.32 | -2.60 |
|iter: 269| 23:13:22 |  -94.020342 | -4.98 | -2.52 |
|iter: 270| 23:13:25 |  -94.026804 | -6.44c| -2.44 |
|iter: 271| 23:13:29 |  -93.057383 | -1.24 | -2.29 |
|iter: 272| 23:13:32 |  -93.328190 | -3.09 | -2.41 |
|iter: 273| 23:13:35 |  -93.665544 | -1.75 | -2.57 |
|iter: 274| 23:13:39 |  -93.571130 | -3.70 | -2.55 |
|iter: 275| 23:13:42 |  -93.303357 | -2.10 | -2.45 |
|iter: 276| 23:13:46 |  -93.474066 | -2.37 | -2.48 |
|iter: 277| 23:13:49 |  -93.431246 | -4.55 | -2.58 |
|iter: 278| 23:13:52 |  -93.271296 | -2.65 | -2.54 |
|iter: 279| 23:13:55 |  -93.102505 | -3.03 | -2.53 |
|iter: 280| 23:13:58 |  -93.087137 | -3.57 | -2.57 |
|iter: 281| 23:14:01 |  -93.075217 | -3.92 | -2.60 |
|iter: 282| 23:14:04 |  -92.873471 | -2.98 | -2.59 |
|iter: 283| 23:14:07 |  -93.181779 | -2.48 | -2.54 |
|iter: 284| 23:14:10 |  -93.398746 | -2.16 | -2.79 |
|iter: 285| 23:14:13 |  -93.524404 | -2.10 | -2.83 |
|iter: 286| 23:14:16 |  -93.760895 | -2.01 | -2.75 |
|iter: 287| 23:14:20 |  -93.471408 | -2.02 | -2.61 |
|iter: 288| 23:14:23 |  -93.736144 | -2.08 | -2.48 |
|iter: 289| 23:14:27 |  -93.252483 | -1.52 | -2.50 |
|iter: 290| 23:14:30 |  -93.652299 | -1.69 | -2.50 |
|iter: 291| 23:14:34 |  -93.647920 | -2.63 | -2.55 |
|iter: 292| 23:14:37 |  -93.195762 | -1.81 | -2.50 |
|iter: 293| 23:14:41 |  -93.212423 | -2.61 | -2.47 |
|iter: 294| 23:14:44 |  -93.609620 | -1.84 | -2.66 |
|iter: 295| 23:14:47 |  -93.425919 | -2.39 | -2.71 |
|iter: 296| 23:14:51 |  -93.436534 | -3.23 | -2.63 |
|iter: 297| 23:14:54 |  -93.029611 | -2.00 | -2.58 |
|iter: 298| 23:14:57 |  -93.447746 | -1.55 | -2.51 |
|iter: 299| 23:15:01 |  -93.643699 | -1.74 | -2.85 |
|iter: 300| 23:15:04 |  -93.698625 | -2.26 | -2.77 |
|iter: 301| 23:15:08 |  -94.426550 | -1.34 | -2.69 |
|iter: 302| 23:15:11 |  -93.323816 | -1.13 | -2.61 |
|iter: 303| 23:15:14 |  -93.836095 | -2.00 | -2.53 |
|iter: 304| 23:15:18 |  -93.324199 | -1.47 | -2.47 |
|iter: 305| 23:15:21 |  -93.228190 | -2.20 | -2.48 |
|iter: 306| 23:15:25 |  -93.149722 | -2.58 | -2.46 |
|iter: 307| 23:15:28 |  -93.126737 | -3.19 | -2.48 |
|iter: 308| 23:15:31 |  -92.911045 | -2.67 | -2.51 |
|iter: 309| 23:15:34 |  -92.662380 | -2.75 | -2.47 |
|iter: 310| 23:15:37 |  -93.006767 | -2.33 | -2.43 |
|iter: 311| 23:15:39 |  -93.130067 | -2.76 | -2.59 |
|iter: 312| 23:15:43 |  -93.216411 | -3.02 | -2.60 |
|iter: 313| 23:15:45 |  -93.218602 | -3.86 | -2.55 |
|iter: 314| 23:15:48 |  -93.276469 | -3.25 | -2.52 |
|iter: 315| 23:15:51 |  -93.420720 | -2.48 | -2.55 |
|iter: 316| 23:15:55 |  -93.513330 | -2.47 | -2.58 |
|iter: 317| 23:15:58 |  -93.515721 | -3.17 | -2.53 |
|iter: 318| 23:16:02 |  -93.776680 | -2.14 | -2.50 |
|iter: 319| 23:16:05 |  -94.179526 | -1.87 | -2.52 |
|iter: 320| 23:16:08 |  -93.820344 | -2.32 | -2.40 |
|iter: 321| 23:16:12 |  -93.508124 | -2.05 | -2.38 |
|iter: 322| 23:16:15 |  -93.344859 | -2.18 | -2.49 |
|iter: 323| 23:16:19 |  -93.205591 | -2.17 | -2.46 |
|iter: 324| 23:16:22 |  -93.312379 | -2.81 | -2.31 |
|iter: 325| 23:16:25 |  -93.412805 | -2.66 | -2.74 |
|iter: 326| 23:16:29 |  -93.344595 | -3.34 | -2.72 |
|iter: 327| 23:16:32 |  -93.424976 | -2.99 | -2.68 |
|iter: 328| 23:16:36 |  -93.151253 | -2.22 | -2.64 |
|iter: 329| 23:16:39 |  -93.492584 | -1.63 | -2.60 |
|iter: 330| 23:16:42 |  -93.865577 | -1.49 | -2.82 |
|iter: 331| 23:16:46 |  -93.924518 | -2.09 | -2.74 |
|iter: 332| 23:16:49 |  -93.672527 | -2.44 | -2.66 |
|iter: 333| 23:16:53 |  -93.689568 | -3.40 | -2.58 |
|iter: 334| 23:16:56 |  -93.286336 | -1.81 | -2.44 |
|iter: 335| 23:17:00 |  -93.108261 | -2.44 | -2.47 |
|iter: 336| 23:17:03 |  -93.309939 | -2.50 | -2.59 |
|iter: 337| 23:17:06 |  -93.672504 | -1.57 | -2.76 |
|iter: 338| 23:17:10 |  -93.207236 | -1.65 | -2.61 |
|iter: 339| 23:17:14 |  -93.049394 | -2.38 | -2.50 |
|iter: 340| 23:17:17 |  -93.237021 | -2.77 | -2.56 |
|iter: 341| 23:17:21 |  -93.573238 | -1.74 | -2.74 |
|iter: 342| 23:17:24 |  -93.362648 | -2.24 | -2.63 |
|iter: 343| 23:17:28 |  -93.335152 | -2.83 | -2.54 |
|iter: 344| 23:17:31 |  -93.618668 | -1.76 | -2.59 |
|iter: 345| 23:17:34 |  -93.482590 | -3.19 | -2.62 |
|iter: 346| 23:17:37 |  -93.488066 | -4.01 | -2.52 |
|iter: 347| 23:17:40 |  -93.567153 | -2.99 | -2.53 |
|iter: 348| 23:17:43 |  -93.410553 | -2.34 | -2.49 |
|iter: 349| 23:17:46 |  -93.752543 | -1.67 | -2.46 |
|iter: 350| 23:17:49 |  -94.138651 | -1.67 | -2.63 |
|iter: 351| 23:17:52 |  -93.635491 | -1.86 | -2.55 |
|iter: 352| 23:17:55 |  -94.645103 | -1.18 | -2.47 |
|iter: 353| 23:17:58 |  -93.988544 | -2.14 | -2.35 |
|iter: 354| 23:18:02 |  -93.474265 | -1.79 | -2.30 |
|iter: 355| 23:18:05 |  -93.164450 | -1.97 | -2.43 |
|iter: 356| 23:18:08 |  -93.163989 | -2.82 | -2.45 |
|iter: 357| 23:18:12 |  -93.189289 | -4.27 | -2.54 |
|iter: 358| 23:18:15 |  -93.304235 | -3.18 | -2.56 |
|iter: 359| 23:18:19 |  -93.192973 | -3.03 | -2.68 |
|iter: 360| 23:18:22 |  -93.113279 | -3.49 | -2.63 |
|iter: 361| 23:18:25 |  -93.089898 | -3.94 | -2.64 |
|iter: 362| 23:18:29 |  -93.031936 | -3.85 | -2.64 |
|iter: 363| 23:18:32 |  -93.129649 | -3.31 | -2.62 |
|iter: 364| 23:18:36 |  -93.299043 | -2.76 | -2.68 |
|iter: 365| 23:18:39 |  -93.224846 | -3.27 | -2.67 |
|iter: 366| 23:18:42 |  -93.224015 | -3.92 | -2.60 |
|iter: 367| 23:18:46 |  -93.159030 | -3.60 | -2.60 |
|iter: 368| 23:18:49 |  -93.122158 | -3.69 | -2.62 |
|iter: 369| 23:18:53 |  -93.278200 | -2.81 | -2.63 |
|iter: 370| 23:18:56 |  -93.389798 | -2.80 | -2.79 |
|iter: 371| 23:18:59 |  -93.599453 | -2.11 | -2.81 |
|iter: 372| 23:19:03 |  -93.461918 | -2.79 | -2.70 |
|iter: 373| 23:19:06 |  -93.880011 | -1.50 | -2.58 |
|iter: 374| 23:19:10 |  -93.335139 | -1.51 | -2.55 |
|iter: 375| 23:19:13 |  -93.281720 | -2.23 | -2.54 |
|iter: 376| 23:19:17 |  -93.174066 | -2.37 | -2.54 |
|iter: 377| 23:19:20 |  -93.196384 | -3.47 | -2.57 |
|iter: 378| 23:19:23 |  -93.086626 | -3.05 | -2.63 |
|iter: 379| 23:19:25 |  -93.235363 | -2.68 | -2.57 |
|iter: 380| 23:19:29 |  -93.080271 | -2.83 | -2.73 |
|iter: 381| 23:19:32 |  -93.254993 | -2.52 | -2.56 |
|iter: 382| 23:19:34 |  -93.238556 | -4.20 | -2.76 |
|iter: 383| 23:19:38 |  -93.232805 | -5.17 | -2.69 |
|iter: 384| 23:19:40 |  -93.322068 | -2.95 | -2.64 |
|iter: 385| 23:19:43 |  -93.288916 | -4.22 | -2.69 |
|iter: 386| 23:19:47 |  -93.441705 | -2.47 | -2.65 |
|iter: 387| 23:19:50 |  -93.576955 | -2.29 | -2.70 |
|iter: 388| 23:19:53 |  -93.379746 | -2.33 | -2.59 |
|iter: 389| 23:19:57 |  -93.312466 | -2.60 | -2.51 |
|iter: 390| 23:20:00 |  -93.467454 | -2.36 | -2.54 |
|iter: 391| 23:20:04 |  -93.831881 | -1.73 | -2.73 |
|iter: 392| 23:20:07 |  -93.543573 | -2.21 | -2.59 |
|iter: 393| 23:20:11 |  -93.618680 | -4.24 | -2.52 |
|iter: 394| 23:20:14 |  -93.415534 | -2.30 | -2.48 |
|iter: 395| 23:20:18 |  -93.396050 | -2.80 | -2.50 |
|iter: 396| 23:20:21 |  -93.222841 | -2.20 | -2.58 |
|iter: 397| 23:20:24 |  -93.193192 | -2.83 | -2.57 |
|iter: 398| 23:20:28 |  -93.203654 | -3.97 | -2.53 |
|iter: 399| 23:20:31 |  -93.169660 | -3.82 | -2.59 |
|iter: 400| 23:20:35 |  -93.136289 | -4.23 | -2.57 |
|iter: 401| 23:20:38 |  -93.260584 | -3.07 | -2.61 |
|iter: 402| 23:20:42 |  -93.122420 | -2.83 | -2.77 |
|iter: 403| 23:20:45 |  -92.860697 | -2.64 | -2.64 |
|iter: 404| 23:20:48 |  -92.723285 | -3.23 | -2.64 |
|iter: 405| 23:20:52 |  -93.215999 | -2.03 | -2.54 |
|iter: 406| 23:20:55 |  -92.978636 | -2.69 | -2.88 |
|iter: 407| 23:20:59 |  -93.261954 | -2.14 | -2.80 |
|iter: 408| 23:21:02 |  -93.223480 | -3.87 | -2.77 |
|iter: 409| 23:21:05 |  -93.279996 | -3.15 | -2.62 |
|iter: 410| 23:21:08 |  -93.439391 | -2.51 | -2.65 |
|iter: 411| 23:21:11 |  -93.613366 | -2.08 | -2.66 |
|iter: 412| 23:21:14 |  -93.469793 | -2.80 | -2.60 |
|iter: 413| 23:21:17 |  -93.659513 | -2.18 | -2.54 |
|iter: 414| 23:21:20 |  -93.334124 | -1.76 | -2.51 |
|iter: 415| 23:21:23 |  -93.355309 | -2.57 | -2.54 |
|iter: 416| 23:21:26 |  -93.246586 | -2.44 | -2.48 |
|iter: 417| 23:21:29 |  -93.439626 | -2.07 | -2.49 |
|iter: 418| 23:21:32 |  -93.567392 | -2.25 | -2.59 |
|iter: 419| 23:21:35 |  -93.737183 | -2.04 | -2.57 |
|iter: 420| 23:21:39 |  -93.435512 | -2.01 | -2.50 |
|iter: 421| 23:21:42 |  -93.232731 | -2.36 | -2.51 |
|iter: 422| 23:21:46 |  -93.307714 | -3.47 | -2.47 |
|iter: 423| 23:21:49 |  -93.215511 | -2.93 | -2.66 |
|iter: 424| 23:21:52 |  -93.492353 | -1.79 | -2.57 |
|iter: 425| 23:21:56 |  -93.506093 | -2.61 | -2.75 |
|iter: 426| 23:21:59 |  -93.703494 | -2.00 | -2.67 |
|iter: 427| 23:22:03 |  -93.951246 | -1.98 | -2.54 |
|iter: 428| 23:22:06 |  -93.585151 | -2.08 | -2.46 |
|iter: 429| 23:22:10 |  -93.457514 | -2.45 | -2.48 |
|iter: 430| 23:22:13 |  -93.348077 | -2.35 | -2.48 |
|iter: 431| 23:22:16 |  -93.082533 | -2.25 | -2.50 |
|iter: 432| 23:22:20 |  -92.485977 | -2.25 | -2.54 |
|iter: 433| 23:22:23 |  -93.238605 | -1.66 | -2.39 |
|iter: 434| 23:22:27 |  -93.176837 | -3.36 | -2.97 |
|iter: 435| 23:22:30 |  -93.156994 | -4.41 | -2.89 |
|iter: 436| 23:22:34 |  -93.170412 | -4.76 | -2.81 |
|iter: 437| 23:22:37 |  -93.164993 | -5.84 | -2.73 |
|iter: 438| 23:22:40 |  -93.566922 | -1.60 | -2.59 |
|iter: 439| 23:22:42 |  -93.602034 | -2.37 | -2.67 |
|iter: 440| 23:22:45 |  -93.532334 | -3.97 | -2.56 |
|iter: 441| 23:22:48 |  -93.480569 | -3.29 | -2.43 |
|iter: 442| 23:22:51 |  -93.456728 | -3.47 | -2.50 |
|iter: 443| 23:22:54 |  -93.282781 | -2.37 | -2.47 |
|iter: 444| 23:22:57 |  -93.123966 | -2.75 | -2.46 |
|iter: 445| 23:23:00 |  -93.390016 | -2.10 | -2.55 |
|iter: 446| 23:23:04 |  -93.921590 | -1.20 | -2.85 |
|iter: 447| 23:23:07 |  -93.222150 | -1.34 | -2.77 |
|iter: 448| 23:23:11 |  -93.354797 | -2.68 | -2.69 |
|iter: 449| 23:23:14 |  -93.297614 | -2.69 | -2.58 |
|iter: 450| 23:23:18 |  -93.485808 | -2.16 | -2.58 |
|iter: 451| 23:23:21 |  -93.511333 | -2.70 | -2.76 |
|iter: 452| 23:23:25 |  -93.489755 | -4.15 | -2.68 |
|iter: 453| 23:23:28 |  -94.053132 | -1.53 | -2.56 |
|iter: 454| 23:23:32 |  -93.374349 | -1.37 | -2.49 |
|iter: 455| 23:23:35 |  -93.405500 | -1.97 | -2.42 |
|iter: 456| 23:23:39 |  -93.340906 | -2.27 | -2.42 |
|iter: 457| 23:23:42 |  -93.084397 | -2.31 | -2.46 |
|iter: 458| 23:23:46 |  -92.965903 | -2.84 | -2.54 |
|iter: 459| 23:23:49 |  -92.446211 | -2.47 | -2.56 |
|iter: 460| 23:23:53 |  -92.462856 | -2.90 | -2.47 |
|iter: 461| 23:23:56 |  -92.698281 | -2.89 | -2.41 |
|iter: 462| 23:23:59 |  -92.865503 | -3.03 | -2.53 |
|iter: 463| 23:24:03 |  -92.715692 | -3.08 | -2.59 |
|iter: 464| 23:24:06 |  -92.788374 | -3.60 | -2.54 |
|iter: 465| 23:24:10 |  -93.099596 | -2.27 | -2.46 |
|iter: 466| 23:24:13 |  -93.368303 | -2.26 | -2.60 |
|iter: 467| 23:24:17 |  -93.666360 | -1.58 | -2.59 |
|iter: 468| 23:24:20 |  -93.279871 | -1.73 | -2.50 |
|iter: 469| 23:24:23 |  -93.447854 | -2.92 | -2.44 |
|iter: 470| 23:24:27 |  -93.220253 | -2.20 | -2.53 |
|iter: 471| 23:24:30 |  -93.188001 | -2.86 | -2.51 |
|iter: 472| 23:24:33 |  -93.277055 | -3.48 | -2.59 |
|iter: 473| 23:24:36 |  -93.147623 | -2.83 | -2.61 |
|iter: 474| 23:24:39 |  -93.412259 | -1.92 | -2.54 |
|iter: 475| 23:24:41 |  -93.491254 | -2.31 | -2.81 |
|iter: 476| 23:24:45 |  -93.702799 | -1.89 | -2.73 |
|iter: 477| 23:24:47 |  -94.519052 | -1.16 | -2.59 |
|iter: 478| 23:24:50 |  -94.190438 | -3.18 | -2.51 |
|iter: 479| 23:24:54 |  -94.357841 | -2.93 | -2.43 |
|iter: 480| 23:24:57 |  -94.521182 | -2.95 | -2.35 |
|iter: 481| 23:25:00 |  -94.687225 | -2.88 | -2.27 |
|iter: 482| 23:25:04 |  -93.625571 | -1.35 | -2.11 |
|iter: 483| 23:25:07 |  -93.282362 | -1.74 | -2.30 |
|iter: 484| 23:25:11 |  -93.823772 | -1.21 | -2.31 |
|iter: 485| 23:25:14 |  -97.590108 | -0.35 | -2.52 |
|iter: 486| 23:25:17 |  -98.078743 | -0.98 | -2.44 |
|iter: 487| 23:25:21 |  -97.553118 | -2.45 | -2.36 |
|iter: 488| 23:25:25 |  -97.020202 | -3.21 | -2.28 |
|iter: 489| 23:25:28 |  -96.558644 | -3.02 | -2.20 |
|iter: 490| 23:25:31 |  -96.144775 | -3.01 | -2.12 |
|iter: 491| 23:25:35 |  -95.772839 | -2.92 | -2.04 |
|iter: 492| 23:25:38 |  -95.762134 | -3.65 | -1.96 |
|iter: 493| 23:25:42 |  -93.610441 | -1.39 | -1.83 |
|iter: 494| 23:25:45 |  -93.651209 | -2.15 | -2.28 |
|iter: 495| 23:25:48 |  -93.584825 | -2.45 | -2.31 |
|iter: 496| 23:25:52 |  -93.777378 | -2.49 | -2.43 |
|iter: 497| 23:25:56 |  -93.510992 | -2.01 | -2.45 |
|iter: 498| 23:26:00 |  -93.836648 | -1.86 | -2.42 |
|iter: 499| 23:26:03 |  -93.463738 | -1.81 | -2.41 |
|iter: 500| 23:26:07 |  -93.151230 | -2.07 | -2.41 |
|iter: 501| 23:26:10 |  -93.711506 | -1.09 | -2.57 |
|iter: 502| 23:26:14 |  -96.482431 | -0.47 | -2.64 |
|iter: 503| 23:26:18 |  -96.900575 | -1.12 | -2.56 |
|iter: 504| 23:26:21 |  -96.582494 | -2.42 | -2.48 |
|iter: 505| 23:26:25 |  -96.220264 | -3.49 | -2.40 |
|iter: 506| 23:26:28 |  -95.887933 | -3.14 | -2.32 |
|iter: 507| 23:26:32 |  -95.589269 | -3.15 | -2.24 |
|iter: 508| 23:26:35 |  -95.323024 | -3.05 | -2.16 |
|iter: 509| 23:26:38 |  -95.315453 | -3.72 | -2.08 |
|iter: 510| 23:26:41 |  -93.660865 | -1.38 | -1.92 |
|iter: 511| 23:26:44 |  -93.435515 | -1.83 | -2.25 |
|iter: 512| 23:26:47 |  -93.817574 | -1.83 | -2.33 |
|iter: 513| 23:26:50 |  -95.899638 | -0.70 | -2.55 |
|iter: 514| 23:26:53 |  -95.839849 | -1.56 | -2.47 |
|iter: 515| 23:26:56 |  -95.642280 | -3.02 | -2.40 |
|iter: 516| 23:27:00 |  -95.531172 | -4.39 | -2.32 |
|iter: 517| 23:27:03 |  -95.362386 | -3.57 | -2.24 |
|iter: 518| 23:27:07 |  -95.147012 | -3.36 | -2.16 |
|iter: 519| 23:27:10 |  -95.146529 | -4.14 | -2.08 |
|iter: 520| 23:27:13 |  -93.714705 | -1.44 | -1.95 |
|iter: 521| 23:27:17 |  -93.438437 | -1.81 | -2.25 |
|iter: 522| 23:27:20 |  -93.867834 | -1.68 | -2.27 |
|iter: 523| 23:27:23 |  -93.752266 | -3.83 | -2.40 |
|iter: 524| 23:27:27 |  -93.330709 | -1.81 | -2.37 |
|iter: 525| 23:27:30 |  -92.689352 | -2.04 | -2.39 |
|iter: 526| 23:27:33 |  -92.297238 | -2.32 | -2.47 |
|iter: 527| 23:27:37 |  -92.019594 | -2.85 | -2.32 |
|iter: 528| 23:27:40 |  -91.753042 | -3.25 | -2.27 |
|iter: 529| 23:27:44 |  -91.324354 | -3.54 | -2.22 |
|iter: 530| 23:27:47 |  -92.007079 | -2.83 | -2.17 |
|iter: 531| 23:27:51 |  -92.756670 | -2.20 | -2.27 |
|iter: 532| 23:27:54 |  -92.499913 | -3.24 | -2.58 |
|iter: 533| 23:27:57 |  -92.366748 | -3.11 | -2.43 |
|iter: 534| 23:28:01 |  -92.178815 | -3.29 | -2.37 |
|iter: 535| 23:28:04 |  -92.805530 | -2.25 | -2.32 |
|iter: 536| 23:28:08 |  -93.038505 | -2.56 | -2.65 |
|iter: 537| 23:28:11 |  -92.585923 | -2.30 | -2.62 |
|iter: 538| 23:28:15 |  -92.614355 | -3.53 | -2.48 |
|iter: 539| 23:28:18 |  -92.945814 | -2.96 | -2.54 |
|iter: 540| 23:28:22 |  -93.311960 | -1.72 | -2.63 |
|iter: 541| 23:28:25 |  -93.764551 | -1.09 | -2.91 |
|iter: 542| 23:28:29 |  -94.309235 | -1.24 | -2.83 |
|iter: 543| 23:28:32 |  -94.277122 | -2.04 | -2.75 |
|iter: 544| 23:28:35 |  -94.146115 | -4.31 | -2.67 |
|iter: 545| 23:28:38 |  -94.022987 | -3.28 | -2.59 |
|iter: 546| 23:28:41 |  -94.022017 | -3.85 | -2.52 |
|iter: 547| 23:28:44 |  -94.021979 | -4.71 | -2.44 |
|iter: 548| 23:28:47 |  -93.351165 | -1.41 | -2.34 |
|iter: 549| 23:28:49 |  -92.787841 | -1.97 | -2.38 |
|iter: 550| 23:28:52 |  -93.151044 | -2.26 | -2.49 |
|iter: 551| 23:28:56 |  -93.513618 | -1.70 | -2.71 |
|iter: 552| 23:28:59 |  -93.489935 | -3.12 | -2.69 |
|iter: 553| 23:29:03 |  -93.376955 | -2.90 | -2.57 |
|iter: 554| 23:29:06 |  -93.357629 | -3.34 | -2.54 |
|iter: 555| 23:29:10 |  -93.240603 | -2.70 | -2.56 |
|iter: 556| 23:29:13 |  -93.346245 | -2.82 | -2.53 |
|iter: 557| 23:29:17 |  -93.510290 | -2.33 | -2.66 |
|iter: 558| 23:29:20 |  -93.658485 | -2.20 | -2.61 |
|iter: 559| 23:29:24 |  -93.646669 | -3.06 | -2.53 |
|iter: 560| 23:29:27 |  -93.447849 | -2.21 | -2.47 |
|iter: 561| 23:29:30 |  -93.552569 | -3.36 | -2.52 |
|iter: 562| 23:29:34 |  -93.332390 | -2.21 | -2.48 |
|iter: 563| 23:29:37 |  -93.425696 | -3.31 | -2.47 |
|iter: 564| 23:29:41 |  -93.509122 | -3.16 | -2.53 |
|iter: 565| 23:29:44 |  -93.567814 | -3.03 | -2.52 |
|iter: 566| 23:29:48 |  -93.717301 | -2.37 | -2.51 |
|iter: 567| 23:29:51 |  -93.567709 | -2.87 | -2.49 |
|iter: 568| 23:29:55 |  -93.448375 | -3.08 | -2.54 |
|iter: 569| 23:29:58 |  -93.491570 | -3.77 | -2.48 |
|iter: 570| 23:30:01 |  -93.411674 | -2.84 | -2.50 |
|iter: 571| 23:30:05 |  -93.662742 | -1.99 | -2.50 |
|iter: 572| 23:30:08 |  -93.684523 | -2.69 | -2.63 |
|iter: 573| 23:30:12 |  -93.969012 | -1.85 | -2.55 |
|iter: 574| 23:30:15 |  -93.671457 | -2.46 | -2.37 |
|iter: 575| 23:30:18 |  -93.817408 | -3.12 | -2.46 |
|iter: 576| 23:30:21 |  -93.360393 | -1.56 | -2.33 |
|iter: 577| 23:30:24 |  -94.046494 | -1.22 | -2.56 |
|iter: 578| 23:30:26 |  -93.420283 | -1.52 | -2.39 |
|iter: 579| 23:30:29 |  -94.239969 | -1.10 | -2.30 |
|iter: 580| 23:30:32 |  -94.070248 | -2.66 | -2.47 |
|iter: 581| 23:30:35 |  -93.991475 | -4.20 | -2.39 |
|iter: 582| 23:30:38 |  -93.413899 | -1.44 | -2.28 |
|iter: 583| 23:30:42 |  -93.885678 | -1.85 | -2.45 |
|iter: 584| 23:30:45 |  -94.502469 | -1.59 | -2.51 |
|iter: 585| 23:30:48 |  -94.366658 | -2.91 | -2.44 |
|iter: 586| 23:30:52 |  -94.351645 | -3.94 | -2.36 |
|iter: 587| 23:30:55 |  -94.535872 | -2.77 | -2.28 |
|iter: 588| 23:30:59 |  -94.501441 | -4.07 | -2.14 |
|iter: 589| 23:31:02 |  -95.580641 | -1.56 | -2.10 |
|iter: 590| 23:31:06 |  -94.457770 | -1.87 | -1.94 |
|iter: 591| 23:31:09 |  -93.795513 | -1.75 | -2.10 |
|iter: 592| 23:31:13 |  -94.714009 | -1.55 | -2.21 |
|iter: 593| 23:31:16 |  -94.379159 | -3.36 | -2.21 |
|iter: 594| 23:31:19 |  -93.873229 | -1.95 | -2.10 |
|iter: 595| 23:31:23 |  -93.633454 | -2.49 | -2.21 |
|iter: 596| 23:31:26 |  -93.092488 | -1.77 | -2.39 |
|iter: 597| 23:31:30 |  -93.011053 | -2.35 | -2.51 |
|iter: 598| 23:31:33 |  -93.009593 | -3.23 | -2.56 |
|iter: 599| 23:31:37 |  -92.897303 | -3.09 | -2.56 |
|iter: 600| 23:31:40 |  -92.976297 | -4.19 | -2.50 |
|iter: 601| 23:31:43 |  -93.016763 | -4.13 | -2.55 |
|iter: 602| 23:31:47 |  -92.809548 | -2.63 | -2.56 |
|iter: 603| 23:31:50 |  -92.599569 | -3.17 | -2.48 |
|iter: 604| 23:31:54 |  -93.004711 | -2.04 | -2.40 |
|iter: 605| 23:31:58 |  -93.096903 | -2.90 | -2.60 |
|iter: 606| 23:32:00 |  -93.627807 | -1.49 | -2.58 |
|iter: 607| 23:32:04 |  -93.447427 | -2.68 | -2.63 |
|iter: 608| 23:32:06 |  -93.937728 | -1.44 | -2.51 |
|iter: 609| 23:32:09 |  -93.887247 | -2.60 | -2.48 |
|iter: 610| 23:32:12 |  -94.028435 | -2.64 | -2.37 |
|iter: 611| 23:32:15 |  -93.795197 | -2.46 | -2.31 |
|iter: 612| 23:32:18 |  -93.731229 | -2.98 | -2.34 |
|iter: 613| 23:32:21 |  -93.465215 | -1.88 | -2.38 |
|iter: 614| 23:32:24 |  -93.501552 | -2.90 | -2.50 |
|iter: 615| 23:32:27 |  -93.331530 | -2.38 | -2.51 |
|iter: 616| 23:32:31 |  -93.239820 | -2.78 | -2.54 |
|iter: 617| 23:32:34 |  -93.333479 | -3.43 | -2.57 |
|iter: 618| 23:32:37 |  -93.268902 | -3.48 | -2.54 |
|iter: 619| 23:32:41 |  -93.191199 | -3.30 | -2.58 |
|iter: 620| 23:32:44 |  -92.973452 | -2.87 | -2.52 |
|iter: 621| 23:32:47 |  -93.294438 | -2.13 | -2.48 |
|iter: 622| 23:32:51 |  -93.076944 | -2.52 | -2.77 |
|iter: 623| 23:32:55 |  -92.962555 | -3.04 | -2.70 |
|iter: 624| 23:32:58 |  -92.330431 | -2.03 | -2.53 |
|iter: 625| 23:33:01 |  -93.007457 | -1.64 | -2.36 |
|iter: 626| 23:33:05 |  -93.189518 | -2.25 | -2.63 |
|iter: 627| 23:33:08 |  -93.273703 | -2.64 | -2.68 |
|iter: 628| 23:33:11 |  -93.481381 | -1.91 | -2.60 |
|iter: 629| 23:33:15 |  -94.030182 | -1.22 | -2.67 |
|iter: 630| 23:33:18 |  -96.303376 | -0.57 | -2.50 |
|iter: 631| 23:33:22 |  -95.356916 | -2.65 | -2.42 |
|iter: 632| 23:33:25 |  -94.854258 | -2.63 | -2.34 |
|iter: 633| 23:33:29 |  -94.719240 | -3.06 | -2.26 |
|iter: 634| 23:33:32 |  -94.653683 | -3.35 | -2.18 |
|iter: 635| 23:33:35 |  -93.705253 | -1.45 | -2.05 |
|iter: 636| 23:33:39 |  -93.230670 | -1.56 | -2.27 |
|iter: 637| 23:33:42 |  -93.355348 | -3.06 | -2.51 |
|iter: 638| 23:33:46 |  -93.408251 | -3.65 | -2.58 |
|iter: 639| 23:33:49 |  -93.414937 | -4.06 | -2.60 |
|iter: 640| 23:33:52 |  -93.366391 | -3.44 | -2.59 |
|iter: 641| 23:33:56 |  -93.418287 | -3.28 | -2.57 |
|iter: 642| 23:33:59 |  -93.303983 | -2.70 | -2.61 |
|iter: 643| 23:34:02 |  -93.126964 | -2.79 | -2.55 |
|iter: 644| 23:34:06 |  -93.086848 | -3.44 | -2.57 |
|iter: 645| 23:34:09 |  -92.950780 | -3.03 | -2.61 |
|iter: 646| 23:34:13 |  -92.703235 | -2.69 | -2.58 |
|iter: 647| 23:34:16 |  -92.567464 | -3.35 | -2.51 |
|iter: 648| 23:34:19 |  -91.798209 | -2.65 | -2.41 |
|iter: 649| 23:34:22 |  -92.845518 | -1.94 | -2.27 |
|iter: 650| 23:34:25 |  -93.326194 | -1.75 | -2.65 |
|iter: 651| 23:34:28 |  -94.301149 | -0.60 | -2.99 |
|iter: 652| 23:34:30 |  -93.876721 | -2.73 | -2.91 |
|iter: 653| 23:34:33 |  -93.172854 | -1.58 | -2.83 |
|iter: 654| 23:34:37 |  -93.971858 | -0.85 | -2.75 |
|iter: 655| 23:34:40 |  -96.760225 | -0.51 | -2.69 |
|iter: 656| 23:34:43 |  -95.246061 | -2.65 | -2.61 |
|iter: 657| 23:34:47 |  -95.269193 | -3.52 | -2.53 |
|iter: 658| 23:34:50 |  -95.436379 | -3.63 | -2.45 |
|iter: 659| 23:34:54 |  -95.550001 | -3.69 | -2.37 |
|iter: 660| 23:34:57 |  -95.692354 | -3.54 | -2.29 |
|iter: 661| 23:35:00 |  -95.684228 | -3.96 | -2.21 |
|iter: 662| 23:35:04 |  -94.850386 | -2.45 | -2.13 |
|iter: 663| 23:35:07 |  -93.872254 | -1.58 | -1.98 |
|iter: 664| 23:35:10 |  -93.306431 | -1.46 | -2.23 |
|iter: 665| 23:35:14 |  -93.763034 | -1.77 | -2.49 |
|iter: 666| 23:35:18 |  -93.588041 | -3.04 | -2.40 |
|iter: 667| 23:35:21 |  -93.205726 | -1.87 | -2.35 |
|iter: 668| 23:35:25 |  -92.626869 | -2.18 | -2.39 |
|iter: 669| 23:35:28 |  -92.635528 | -3.15 | -2.36 |
|iter: 670| 23:35:32 |  -93.243551 | -1.83 | -2.38 |
|iter: 671| 23:35:35 |  -93.976186 | -0.79 | -2.93 |
|iter: 672| 23:35:39 |  -93.633270 | -2.51 | -2.85 |
|iter: 673| 23:35:42 |  -93.758817 | -2.98 | -2.77 |
|iter: 674| 23:35:46 |  -93.883177 | -2.84 | -2.69 |
|iter: 675| 23:35:49 |  -93.741648 | -2.80 | -2.61 |
|iter: 676| 23:35:53 |  -93.817629 | -3.70 | -2.53 |
|iter: 677| 23:35:56 |  -93.688992 | -2.74 | -2.45 |
|iter: 678| 23:35:59 |  -93.148068 | -1.71 | -2.36 |
|iter: 679| 23:36:03 |  -93.334093 | -3.11 | -2.46 |
|iter: 680| 23:36:06 |  -93.603134 | -1.87 | -2.61 |
|iter: 681| 23:36:10 |  -93.198115 | -1.76 | -2.55 |
|iter: 682| 23:36:13 |  -93.928159 | -0.86 | -2.48 |
|iter: 683| 23:36:17 |  -93.963707 | -1.92 | -2.65 |
|iter: 684| 23:36:20 |  -93.692286 | -2.59 | -2.57 |
|iter: 685| 23:36:22 |  -93.587998 | -2.70 | -2.49 |
|iter: 686| 23:36:26 |  -93.280125 | -1.90 | -2.41 |
|iter: 687| 23:36:29 |  -93.226132 | -2.43 | -2.47 |
|iter: 688| 23:36:31 |  -93.410045 | -2.32 | -2.60 |
|iter: 689| 23:36:35 |  -93.553225 | -2.16 | -2.63 |
|iter: 690| 23:36:37 |  -93.539024 | -3.13 | -2.57 |
|iter: 691| 23:36:41 |  -93.515428 | -5.00 | -2.50 |
|iter: 692| 23:36:44 |  -93.732837 | -2.07 | -2.50 |
|iter: 693| 23:36:47 |  -93.443680 | -2.00 | -2.46 |
|iter: 694| 23:36:51 |  -93.385187 | -2.60 | -2.50 |
|iter: 695| 23:36:54 |  -93.123474 | -2.16 | -2.48 |
|iter: 696| 23:36:57 |  -92.941395 | -2.58 | -2.52 |
|iter: 697| 23:37:01 |  -93.239807 | -2.33 | -2.56 |
|iter: 698| 23:37:05 |  -93.619245 | -1.52 | -2.74 |
|iter: 699| 23:37:08 |  -93.739980 | -1.95 | -2.65 |
|iter: 700| 23:37:11 |  -93.393135 | -1.95 | -2.57 |
|iter: 701| 23:37:15 |  -93.577848 | -2.61 | -2.49 |
|iter: 702| 23:37:18 |  -93.521940 | -4.08 | -2.40 |
|iter: 703| 23:37:21 |  -93.398135 | -2.61 | -2.42 |
|iter: 704| 23:37:25 |  -93.269315 | -2.73 | -2.48 |
|iter: 705| 23:37:28 |  -93.303949 | -4.43 | -2.52 |
|iter: 706| 23:37:32 |  -93.391295 | -3.02 | -2.60 |
|iter: 707| 23:37:35 |  -93.303196 | -2.94 | -2.57 |
|iter: 708| 23:37:38 |  -93.504702 | -2.00 | -2.51 |
|iter: 709| 23:37:42 |  -93.934588 | -1.46 | -2.63 |
|iter: 710| 23:37:45 |  -93.428357 | -1.65 | -2.46 |
|iter: 711| 23:37:49 |  -93.567381 | -3.85 | -2.39 |
|iter: 712| 23:37:52 |  -93.238536 | -1.88 | -2.41 |
|iter: 713| 23:37:55 |  -93.695127 | -1.27 | -2.46 |
|iter: 714| 23:37:59 |  -94.372991 | -1.28 | -2.58 |
|iter: 715| 23:38:02 |  -95.450293 | -1.22 | -2.50 |
|iter: 716| 23:38:06 |  -95.775081 | -1.63 | -2.42 |
|iter: 717| 23:38:09 |  -95.552190 | -2.82 | -2.34 |
|iter: 718| 23:38:12 |  -95.307126 | -3.39 | -2.27 |
|iter: 719| 23:38:15 |  -95.082966 | -3.24 | -2.19 |
|iter: 720| 23:38:18 |  -95.076946 | -3.92 | -2.11 |
|iter: 721| 23:38:21 |  -93.625471 | -1.39 | -1.98 |
|iter: 722| 23:38:24 |  -93.324531 | -1.74 | -2.28 |
|iter: 723| 23:38:26 |  -93.558947 | -2.30 | -2.31 |
|iter: 724| 23:38:29 |  -94.985027 | -0.82 | -2.44 |
|iter: 725| 23:38:32 |  -95.351705 | -1.32 | -2.37 |
|iter: 726| 23:38:35 |  -95.139532 | -2.60 | -2.29 |
|iter: 727| 23:38:39 |  -94.885556 | -3.30 | -2.21 |
|iter: 728| 23:38:42 |  -94.886999 | -3.96 | -2.13 |
|iter: 729| 23:38:45 |  -93.340941 | -1.23 | -2.00 |
|iter: 730| 23:38:49 |  -94.494726 | -0.96 | -2.38 |
|iter: 731| 23:38:52 |  -93.615907 | -1.54 | -2.29 |
|iter: 732| 23:38:55 |  -94.164804 | -1.65 | -2.24 |
|iter: 733| 23:38:59 |  -94.930901 | -1.56 | -2.33 |
|iter: 734| 23:39:02 |  -95.608544 | -1.88 | -2.25 |
|iter: 735| 23:39:05 |  -95.527694 | -2.76 | -2.18 |
|iter: 736| 23:39:09 |  -95.397142 | -4.27 | -2.10 |
|iter: 737| 23:39:12 |  -95.450102 | -4.79 | -2.02 |
|iter: 738| 23:39:16 |  -93.921470 | -1.55 | -1.87 |
|iter: 739| 23:39:19 |  -93.748120 | -2.13 | -2.16 |
|iter: 740| 23:39:22 |  -93.207727 | -1.23 | -2.36 |
|iter: 741| 23:39:26 |  -93.222222 | -1.93 | -2.58 |
|iter: 742| 23:39:29 |  -93.078763 | -2.22 | -2.65 |
|iter: 743| 23:39:32 |  -93.121542 | -3.75 | -2.57 |
|iter: 744| 23:39:36 |  -93.319845 | -2.48 | -2.46 |
|iter: 745| 23:39:39 |  -92.865311 | -2.05 | -2.57 |
|iter: 746| 23:39:43 |  -91.430431 | -1.99 | -2.41 |
|iter: 747| 23:39:46 |  -93.156970 | -0.97 | -2.33 |
|iter: 748| 23:39:50 |  -93.129678 | -2.62 | -2.94 |
|iter: 749| 23:39:53 |  -93.118699 | -3.58 | -2.86 |
|iter: 750| 23:39:56 |  -93.125939 | -4.14 | -2.78 |
|iter: 751| 23:40:00 |  -93.127737 | -4.78 | -2.70 |
|iter: 752| 23:40:03 |  -93.234192 | -3.12 | -2.55 |
|iter: 753| 23:40:06 |  -93.120538 | -3.13 | -2.61 |
|iter: 754| 23:40:09 |  -93.241222 | -2.99 | -2.56 |
|iter: 755| 23:40:12 |  -93.344040 | -2.87 | -2.65 |
|iter: 756| 23:40:15 |  -93.334828 | -4.29 | -2.69 |
|iter: 757| 23:40:18 |  -93.557912 | -2.31 | -2.64 |
|iter: 758| 23:40:21 |  -93.798001 | -1.93 | -2.70 |
|iter: 759| 23:40:24 |  -93.442305 | -1.82 | -2.62 |
|iter: 760| 23:40:27 |  -93.598685 | -3.18 | -2.47 |
|iter: 761| 23:40:31 |  -93.422992 | -2.32 | -2.46 |
|iter: 762| 23:40:34 |  -93.393617 | -2.85 | -2.47 |
|iter: 763| 23:40:38 |  -93.319250 | -2.62 | -2.49 |
|iter: 764| 23:40:41 |  -93.446751 | -2.54 | -2.57 |
|iter: 765| 23:40:45 |  -93.288679 | -2.44 | -2.59 |
|iter: 766| 23:40:48 |  -93.192722 | -2.92 | -2.56 |
|iter: 767| 23:40:51 |  -93.315516 | -2.75 | -2.59 |
|iter: 768| 23:40:55 |  -93.411235 | -2.57 | -2.71 |
|iter: 769| 23:40:58 |  -93.331034 | -3.16 | -2.68 |
|iter: 770| 23:41:02 |  -93.255353 | -3.17 | -2.61 |
|iter: 771| 23:41:05 |  -93.326534 | -3.16 | -2.64 |
|iter: 772| 23:41:08 |  -93.485042 | -2.39 | -2.72 |
|iter: 773| 23:41:12 |  -93.386997 | -2.93 | -2.64 |
|iter: 774| 23:41:15 |  -93.277598 | -2.85 | -2.58 |
|iter: 775| 23:41:19 |  -93.535648 | -1.87 | -2.61 |
|iter: 776| 23:41:22 |  -93.528004 | -2.84 | -2.77 |
|iter: 777| 23:41:26 |  -93.541644 | -3.50 | -2.69 |
|iter: 778| 23:41:29 |  -93.317955 | -2.09 | -2.53 |
|iter: 779| 23:41:33 |  -93.392784 | -4.21 | -2.60 |
|iter: 780| 23:41:36 |  -93.323747 | -3.07 | -2.59 |
|iter: 781| 23:41:40 |  -93.347835 | -4.69 | -2.55 |
|iter: 782| 23:41:43 |  -93.530550 | -2.36 | -2.61 |
|iter: 783| 23:41:47 |  -93.443732 | -3.13 | -2.62 |
|iter: 784| 23:41:51 |  -93.270972 | -2.41 | -2.53 |
|iter: 785| 23:41:54 |  -93.267781 | -3.05 | -2.63 |
|iter: 786| 23:41:58 |  -93.405870 | -2.55 | -2.57 |
|iter: 787| 23:42:01 |  -93.779867 | -1.63 | -2.69 |
|iter: 788| 23:42:05 |  -93.347392 | -1.66 | -2.61 |
|iter: 789| 23:42:08 |  -93.337711 | -2.19 | -2.47 |
|iter: 790| 23:42:12 |  -93.110246 | -2.09 | -2.48 |
|iter: 791| 23:42:14 |  -93.452732 | -1.66 | -2.50 |
|iter: 792| 23:42:18 |  -93.558070 | -2.06 | -2.91 |
|iter: 793| 23:42:21 |  -93.886420 | -1.56 | -2.83 |
|iter: 794| 23:42:24 |  -93.838403 | -2.62 | -2.75 |
|iter: 795| 23:42:27 |  -93.762809 | -3.95 | -2.67 |
|iter: 796| 23:42:30 |  -93.706160 | -3.43 | -2.59 |
|iter: 797| 23:42:33 |  -93.559610 | -2.55 | -2.51 |
|iter: 798| 23:42:37 |  -93.348902 | -2.10 | -2.45 |
|iter: 799| 23:42:40 |  -93.686559 | -1.64 | -2.58 |
|iter: 800| 23:42:44 |  -93.781055 | -2.26 | -2.58 |
|iter: 801| 23:42:47 |  -93.469363 | -1.98 | -2.42 |
|iter: 802| 23:42:51 |  -94.019917 | -1.35 | -2.52 |
|iter: 803| 23:42:54 |  -94.127231 | -1.92 | -2.50 |
|iter: 804| 23:42:58 |  -93.543347 | -1.70 | -2.42 |
|iter: 805| 23:43:01 |  -93.684211 | -3.65 | -2.45 |
|iter: 806| 23:43:04 |  -93.937701 | -2.35 | -2.42 |
|iter: 807| 23:43:08 |  -93.436663 | -1.54 | -2.42 |
|iter: 808| 23:43:11 |  -93.551106 | -3.28 | -2.39 |
|iter: 809| 23:43:14 |  -93.610949 | -3.50 | -2.53 |
|iter: 810| 23:43:18 |  -93.553300 | -3.41 | -2.58 |
|iter: 811| 23:43:21 |  -93.467892 | -2.78 | -2.55 |
|iter: 812| 23:43:25 |  -93.348779 | -2.43 | -2.65 |
|iter: 813| 23:43:28 |  -93.364630 | -3.43 | -2.73 |
|iter: 814| 23:43:32 |  -93.234567 | -2.75 | -2.60 |
|iter: 815| 23:43:35 |  -92.977970 | -2.70 | -2.56 |
|iter: 816| 23:43:38 |  -93.139139 | -2.70 | -2.53 |
|iter: 817| 23:43:42 |  -93.529972 | -2.06 | -2.63 |
|iter: 818| 23:43:45 |  -93.518320 | -3.41 | -2.77 |
|iter: 819| 23:43:49 |  -93.710334 | -2.10 | -2.69 |
|iter: 820| 23:43:52 |  -93.666551 | -3.60 | -2.61 |
|iter: 821| 23:43:55 |  -93.636742 | -4.43 | -2.53 |
|iter: 822| 23:43:59 |  -93.675054 | -3.78 | -2.42 |
|iter: 823| 23:44:02 |  -93.499742 | -2.52 | -2.48 |
|iter: 824| 23:44:06 |  -93.566127 | -3.94 | -2.46 |
|iter: 825| 23:44:09 |  -93.550366 | -4.93 | -2.52 |
|iter: 826| 23:44:12 |  -93.506834 | -3.44 | -2.53 |
|iter: 827| 23:44:16 |  -93.440209 | -2.94 | -2.53 |
|iter: 828| 23:44:20 |  -93.458955 | -4.64 | -2.66 |
|iter: 829| 23:44:23 |  -93.615730 | -2.93 | -2.69 |
|iter: 830| 23:44:26 |  -93.962471 | -2.13 | -2.59 |
|iter: 831| 23:44:30 |  -93.601214 | -2.09 | -2.45 |
|iter: 832| 23:44:32 |  -93.527070 | -2.49 | -2.51 |
|iter: 833| 23:44:35 |  -93.163092 | -1.87 | -2.54 |
|iter: 834| 23:44:38 |  -93.525247 | -1.63 | -2.51 |
|iter: 835| 23:44:41 |  -93.619031 | -2.14 | -2.70 |
|iter: 836| 23:44:44 |  -93.342763 | -2.01 | -2.59 |
|iter: 837| 23:44:47 |  -93.771758 | -1.43 | -2.55 |
|iter: 838| 23:44:51 |  -93.168266 | -1.45 | -2.63 |
|iter: 839| 23:44:54 |  -94.040647 | -0.82 | -2.49 |
|iter: 840| 23:44:57 |  -93.161512 | -1.23 | -2.64 |
|iter: 841| 23:45:01 |  -93.468909 | -2.75 | -2.56 |
|iter: 842| 23:45:04 |  -94.405212 | -0.94 | -2.67 |
|iter: 843| 23:45:08 |  -93.996622 | -2.85 | -2.59 |
|iter: 844| 23:45:11 |  -93.738340 | -2.60 | -2.51 |
|iter: 845| 23:45:15 |  -95.055492 | -1.03 | -2.37 |
|iter: 846| 23:45:18 |  -93.476013 | -1.17 | -2.29 |
|iter: 847| 23:45:22 |  -93.562694 | -1.86 | -2.25 |
|iter: 848| 23:45:25 |  -93.544700 | -2.40 | -2.41 |
|iter: 849| 23:45:28 |  -93.363065 | -2.10 | -2.49 |
|iter: 850| 23:45:32 |  -93.665817 | -1.79 | -2.59 |
|iter: 851| 23:45:35 |  -94.272069 | -1.35 | -2.71 |
|iter: 852| 23:45:39 |  -94.352906 | -1.93 | -2.63 |
|iter: 853| 23:45:42 |  -94.295935 | -3.05 | -2.55 |
|iter: 854| 23:45:46 |  -94.296501 | -3.76 | -2.48 |
|iter: 855| 23:45:49 |  -94.318944 | -4.08 | -2.40 |
|iter: 856| 23:45:52 |  -93.987872 | -2.82 | -2.25 |
|iter: 857| 23:45:56 |  -93.910528 | -3.06 | -2.22 |
|iter: 858| 23:45:59 |  -93.500070 | -1.75 | -2.29 |
|iter: 859| 23:46:03 |  -93.971910 | -1.60 | -2.34 |
|iter: 860| 23:46:06 |  -93.843306 | -3.47 | -2.45 |
|iter: 861| 23:46:09 |  -93.477607 | -1.86 | -2.38 |
|iter: 862| 23:46:13 |  -93.129274 | -2.38 | -2.52 |
|iter: 863| 23:46:16 |  -92.848332 | -2.36 | -2.50 |
|iter: 864| 23:46:20 |  -93.132148 | -2.35 | -2.49 |
|iter: 865| 23:46:23 |  -93.383709 | -2.32 | -2.67 |
|iter: 866| 23:46:27 |  -93.417099 | -2.89 | -2.71 |
|iter: 867| 23:46:30 |  -93.442584 | -3.25 | -2.67 |
|iter: 868| 23:46:33 |  -93.497461 | -3.03 | -2.65 |
|iter: 869| 23:46:36 |  -93.316028 | -2.42 | -2.65 |
|iter: 870| 23:46:39 |  -93.401917 | -3.42 | -2.57 |
|iter: 871| 23:46:42 |  -93.501206 | -3.05 | -2.67 |
|iter: 872| 23:46:45 |  -93.296283 | -2.35 | -2.63 |
|iter: 873| 23:46:48 |  -93.459722 | -2.34 | -2.60 |
|iter: 874| 23:46:51 |  -93.683072 | -2.08 | -2.68 |
|iter: 875| 23:46:54 |  -93.474994 | -2.33 | -2.58 |
|iter: 876| 23:46:58 |  -93.807416 | -1.73 | -2.55 |
|iter: 877| 23:47:01 |  -93.385443 | -1.68 | -2.55 |
|iter: 878| 23:47:04 |  -93.866772 | -1.47 | -2.50 |
|iter: 879| 23:47:08 |  -93.601871 | -2.65 | -2.55 |
|iter: 880| 23:47:11 |  -93.932766 | -1.85 | -2.43 |
|iter: 881| 23:47:15 |  -93.419587 | -1.66 | -2.41 |
|iter: 882| 23:47:19 |  -93.878696 | -1.66 | -2.52 |
|iter: 883| 23:47:22 |  -93.336465 | -1.46 | -2.44 |
|iter: 884| 23:47:25 |  -93.402024 | -2.56 | -2.47 |
|iter: 885| 23:47:29 |  -93.981424 | -1.26 | -2.58 |
|iter: 886| 23:47:32 |  -93.804436 | -3.44 | -2.41 |
|iter: 887| 23:47:35 |  -93.360270 | -1.80 | -2.36 |
|iter: 888| 23:47:39 |  -93.527422 | -2.97 | -2.43 |
|iter: 889| 23:47:42 |  -93.721371 | -2.34 | -2.52 |
|iter: 890| 23:47:45 |  -93.440434 | -1.94 | -2.43 |
|iter: 891| 23:47:49 |  -93.426751 | -2.61 | -2.43 |
|iter: 892| 23:47:52 |  -93.195147 | -2.10 | -2.51 |
|iter: 893| 23:47:56 |  -93.344977 | -2.97 | -2.54 |
|iter: 894| 23:47:59 |  -93.353844 | -3.67 | -2.61 |
|iter: 895| 23:48:03 |  -93.166482 | -2.51 | -2.61 |
|iter: 896| 23:48:06 |  -93.226479 | -4.14 | -2.60 |
|iter: 897| 23:48:09 |  -93.094477 | -2.96 | -2.64 |
|iter: 898| 23:48:13 |  -93.236032 | -2.82 | -2.58 |
|iter: 899| 23:48:16 |  -93.197221 | -4.01 | -2.71 |
|iter: 900| 23:48:20 |  -93.074489 | -3.27 | -2.60 |
|iter: 901| 23:48:23 |  -93.135422 | -4.12 | -2.59 |
|iter: 902| 23:48:26 |  -93.281850 | -2.61 | -2.57 |
|iter: 903| 23:48:30 |  -93.414111 | -2.41 | -2.79 |
|iter: 904| 23:48:33 |  -93.673594 | -1.74 | -2.77 |
|iter: 905| 23:48:36 |  -93.672272 | -2.56 | -2.69 |
|iter: 906| 23:48:39 |  -93.383470 | -2.08 | -2.56 |
|iter: 907| 23:48:42 |  -93.194860 | -2.21 | -2.55 |
|iter: 908| 23:48:45 |  -93.258668 | -4.09 | -2.59 |
|iter: 909| 23:48:48 |  -93.221222 | -3.61 | -2.51 |
|iter: 910| 23:48:51 |  -93.103146 | -3.22 | -2.53 |
|iter: 911| 23:48:54 |  -93.024757 | -3.49 | -2.49 |
|iter: 912| 23:48:57 |  -92.919355 | -3.33 | -2.47 |
|iter: 913| 23:49:01 |  -93.168813 | -2.65 | -2.46 |
|iter: 914| 23:49:04 |  -93.035586 | -3.28 | -2.73 |
|iter: 915| 23:49:07 |  -93.279281 | -2.31 | -2.59 |
|iter: 916| 23:49:11 |  -93.060151 | -2.57 | -2.89 |
|iter: 917| 23:49:14 |  -93.195701 | -3.14 | -2.81 |
|iter: 918| 23:49:17 |  -93.623123 | -1.65 | -2.73 |
|iter: 919| 23:49:21 |  -93.349118 | -1.98 | -2.74 |
|iter: 920| 23:49:24 |  -93.963962 | -1.21 | -2.57 |
|iter: 921| 23:49:28 |  -93.177455 | -1.27 | -2.62 |
|iter: 922| 23:49:31 |  -93.290934 | -2.18 | -2.48 |
|iter: 923| 23:49:34 |  -93.425838 | -2.71 | -2.43 |
|iter: 924| 23:49:38 |  -94.080555 | -1.34 | -2.51 |
|iter: 925| 23:49:42 |  -93.279575 | -1.22 | -2.52 |
|iter: 926| 23:49:45 |  -93.369978 | -2.10 | -2.48 |
|iter: 927| 23:49:48 |  -93.075839 | -1.90 | -2.39 |
|iter: 928| 23:49:52 |  -93.353691 | -2.09 | -2.41 |
|iter: 929| 23:49:55 |  -93.523230 | -2.03 | -2.61 |
|iter: 930| 23:49:58 |  -93.894791 | -1.49 | -2.65 |
|iter: 931| 23:50:02 |  -94.577194 | -1.30 | -2.53 |
|iter: 932| 23:50:05 |  -94.132728 | -2.96 | -2.46 |
|iter: 933| 23:50:08 |  -94.799849 | -1.70 | -2.38 |
|iter: 934| 23:50:12 |  -94.295232 | -2.38 | -2.30 |
|iter: 935| 23:50:15 |  -93.653376 | -1.69 | -2.14 |
|iter: 936| 23:50:18 |  -94.386568 | -1.45 | -2.22 |
|iter: 937| 23:50:22 |  -93.627176 | -1.54 | -2.28 |
|iter: 938| 23:50:25 |  -93.628904 | -2.10 | -2.26 |
|iter: 939| 23:50:28 |  -94.069621 | -1.84 | -2.34 |
|iter: 940| 23:50:31 |  -94.095289 | -2.46 | -2.31 |
|iter: 941| 23:50:34 |  -93.880705 | -2.76 | -2.23 |
|iter: 942| 23:50:37 |  -94.268611 | -1.90 | -2.26 |
|iter: 943| 23:50:40 |  -94.702846 | -2.05 | -2.22 |
|iter: 944| 23:50:42 |  -95.015236 | -2.34 | -2.09 |
|iter: 945| 23:50:45 |  -94.710302 | -3.35 | -1.98 |
|iter: 946| 23:50:48 |  -94.545274 | -3.07 | -2.10 |
|iter: 947| 23:50:51 |  -94.019104 | -2.13 | -2.16 |
|iter: 948| 23:50:55 |  -94.517528 | -2.15 | -2.33 |
|iter: 949| 23:50:58 |  -98.099170 | -0.67 | -2.27 |
|iter: 950| 23:51:02 |  -94.985338 | -1.50 | -2.19 |
|iter: 951| 23:51:05 |  -94.579030 | -2.08 | -2.11 |
|iter: 952| 23:51:08 |  -93.178165 | -1.27 | -2.04 |
|iter: 953| 23:51:12 |  -93.340131 | -2.55 | -2.40 |
|iter: 954| 23:51:15 |  -93.159608 | -2.18 | -2.44 |
|iter: 955| 23:51:18 |  -93.020541 | -2.51 | -2.45 |
|iter: 956| 23:51:22 |  -92.377430 | -2.04 | -2.53 |
|iter: 957| 23:51:25 |  -92.529140 | -3.62 | -2.45 |
|iter: 958| 23:51:28 |  -93.167974 | -1.48 | -2.38 |
|iter: 959| 23:51:32 |  -93.265346 | -2.23 | -2.51 |
|iter: 960| 23:51:35 |  -93.516308 | -2.30 | -2.59 |
|iter: 961| 23:51:38 |  -93.319834 | -2.35 | -2.72 |
|iter: 962| 23:51:42 |  -93.163677 | -2.83 | -2.58 |
|iter: 963| 23:51:45 |  -93.132437 | -3.16 | -2.63 |
|iter: 964| 23:51:49 |  -93.153393 | -4.59 | -2.65 |
|iter: 965| 23:51:52 |  -93.244515 | -3.54 | -2.68 |
|iter: 966| 23:51:55 |  -93.352837 | -3.40 | -2.72 |
|iter: 967| 23:51:59 |  -93.689132 | -1.74 | -2.77 |
|iter: 968| 23:52:02 |  -93.345040 | -1.84 | -2.71 |
|iter: 969| 23:52:06 |  -93.760933 | -1.53 | -2.55 |
|iter: 970| 23:52:09 |  -93.800912 | -2.23 | -2.64 |
|iter: 971| 23:52:12 |  -93.357831 | -1.70 | -2.50 |
|iter: 972| 23:52:16 |  -94.103533 | -1.06 | -2.56 |
|iter: 973| 23:52:19 |  -97.159388 | -0.56 | -2.57 |
|iter: 974| 23:52:23 |  -93.994675 | -1.25 | -2.49 |
|iter: 975| 23:52:26 |  -96.127271 | -1.07 | -2.41 |
|iter: 976| 23:52:29 |  -94.286503 | -1.48 | -2.33 |
|iter: 977| 23:52:33 |  -95.442729 | -1.66 | -2.25 |
|iter: 978| 23:52:36 |  -94.415295 | -1.84 | -2.17 |
|iter: 979| 23:52:40 |  -93.899097 | -1.96 | -2.04 |
|iter: 980| 23:52:43 |  -93.472676 | -1.62 | -2.25 |
|iter: 981| 23:52:46 |  -94.075580 | -1.50 | -2.44 |
|iter: 982| 23:52:50 |  -93.353986 | -1.40 | -2.40 |
|iter: 983| 23:52:53 |  -93.367070 | -1.89 | -2.51 |
|iter: 984| 23:52:56 |  -93.601623 | -2.25 | -2.56 |
|iter: 985| 23:52:59 |  -94.000979 | -1.79 | -2.49 |
|iter: 986| 23:53:01 |  -93.430584 | -1.47 | -2.37 |
|iter: 987| 23:53:04 |  -92.866561 | -2.01 | -2.40 |
|iter: 988| 23:53:07 |  -92.742195 | -2.49 | -2.56 |
|iter: 989| 23:53:10 |  -92.045926 | -2.10 | -2.46 |
|iter: 990| 23:53:13 |  -91.828624 | -2.99 | -2.29 |
|iter: 991| 23:53:16 |  -92.206967 | -2.82 | -2.25 |
|iter: 992| 23:53:19 |  -92.314235 | -3.19 | -2.32 |
|iter: 993| 23:53:23 |  -92.062331 | -4.08 | -2.36 |
|iter: 994| 23:53:26 |  -92.371665 | -2.90 | -2.32 |
|iter: 995| 23:53:29 |  -92.822963 | -2.66 | -2.38 |
|iter: 996| 23:53:33 |  -93.245776 | -2.32 | -2.39 |
|iter: 997| 23:53:37 |  -93.359515 | -2.41 | -2.75 |
|iter: 998| 23:53:40 |  -93.326255 | -3.89 | -2.72 |
|iter: 999| 23:53:43 |  -93.633956 | -2.06 | -2.70 |
|iter:1000| 23:53:47 |  -93.459280 | -2.64 | -2.68 |
|iter:1001| 23:53:50 |  -94.282406 | -1.15 | -2.52 |
|iter:1002| 23:53:53 |  -93.318112 | -1.23 | -2.44 |
|iter:1003| 23:53:57 |  -93.619973 | -3.10 | -2.44 |
|iter:1004| 23:54:00 |  -93.769312 | -2.57 | -2.47 |
|iter:1005| 23:54:04 |  -93.576397 | -2.44 | -2.40 |
|iter:1006| 23:54:07 |  -93.644189 | -4.45 | -2.47 |
|iter:1007| 23:54:11 |  -93.764660 | -2.75 | -2.49 |
|iter:1008| 23:54:14 |  -94.257036 | -1.82 | -2.45 |
|iter:1009| 23:54:18 |  -93.739650 | -1.82 | -2.30 |
|iter:1010| 23:54:21 |  -93.565753 | -2.28 | -2.37 |
|iter:1011| 23:54:24 |  -93.343108 | -1.89 | -2.41 |
|iter:1012| 23:54:28 |  -93.021239 | -2.07 | -2.48 |
|iter:1013| 23:54:31 |  -92.992278 | -2.77 | -2.59 |
|iter:1014| 23:54:34 |  -93.043223 | -3.65 | -2.59 |
|iter:1015| 23:54:38 |  -92.650601 | -2.29 | -2.63 |
|iter:1016| 23:54:41 |  -93.011043 | -2.26 | -2.47 |
|iter:1017| 23:54:45 |  -93.498140 | -1.66 | -2.57 |
|iter:1018| 23:54:48 |  -93.271462 | -2.19 | -2.69 |
|iter:1019| 23:54:52 |  -93.258825 | -3.12 | -2.62 |
|iter:1020| 23:54:55 |  -93.864225 | -1.41 | -2.64 |
|iter:1021| 23:54:58 |  -93.935543 | -2.06 | -2.56 |
|iter:1022| 23:55:01 |  -93.412232 | -1.81 | -2.49 |
|iter:1023| 23:55:04 |  -93.034570 | -2.06 | -2.46 |
|iter:1024| 23:55:07 |  -92.995245 | -2.71 | -2.54 |
|iter:1025| 23:55:10 |  -92.471959 | -1.97 | -2.52 |
|iter:1026| 23:55:13 |  -92.410339 | -2.97 | -2.44 |
|iter:1027| 23:55:16 |  -92.922937 | -1.96 | -2.32 |
|iter:1028| 23:55:19 |  -93.299460 | -1.86 | -2.50 |
|iter:1029| 23:55:22 |  -94.652396 | -0.62 | -2.61 |
|iter:1030| 23:55:26 |  -94.763147 | -1.46 | -2.53 |
|iter:1031| 23:55:29 |  -94.620105 | -2.97 | -2.45 |
|iter:1032| 23:55:32 |  -94.449034 | -3.54 | -2.37 |
|iter:1033| 23:55:36 |  -94.445018 | -4.06 | -2.29 |
|iter:1034| 23:55:39 |  -94.082656 | -2.40 | -2.22 |
|iter:1035| 23:55:42 |  -93.030310 | -1.23 | -2.21 |
|iter:1036| 23:55:46 |  -92.779174 | -2.09 | -2.47 |
|iter:1037| 23:55:50 |  -92.253000 | -2.12 | -2.47 |
|iter:1038| 23:55:53 |  -93.117715 | -1.40 | -2.34 |
|iter:1039| 23:55:56 |  -93.522206 | -1.43 | -2.68 |
|iter:1040| 23:56:00 |  -93.770588 | -1.61 | -2.72 |
|iter:1041| 23:56:03 |  -93.702802 | -2.83 | -2.57 |
|iter:1042| 23:56:06 |  -93.175547 | -1.68 | -2.48 |
|iter:1043| 23:56:10 |  -93.151536 | -2.32 | -2.56 |
|iter:1044| 23:56:13 |  -93.469765 | -1.94 | -2.57 |
|iter:1045| 23:56:17 |  -93.886242 | -1.47 | -2.65 |
|iter:1046| 23:56:20 |  -94.089833 | -1.87 | -2.54 |
|iter:1047| 23:56:23 |  -94.051185 | -2.80 | -2.46 |
|iter:1048| 23:56:27 |  -93.691922 | -1.99 | -2.31 |
|iter:1049| 23:56:30 |  -93.416753 | -2.02 | -2.44 |
|iter:1050| 23:56:33 |  -93.240028 | -2.28 | -2.61 |
|iter:1051| 23:56:37 |  -93.327191 | -3.93 | -2.63 |
|iter:1052| 23:56:41 |  -93.052099 | -2.42 | -2.68 |
|iter:1053| 23:56:44 |  -92.973883 | -3.10 | -2.59 |
|iter:1054| 23:56:47 |  -92.548765 | -2.34 | -2.57 |
|iter:1055| 23:56:51 |  -93.122696 | -1.88 | -2.44 |
|iter:1056| 23:56:54 |  -93.232961 | -2.13 | -2.78 |
|iter:1057| 23:56:57 |  -93.219256 | -3.33 | -2.73 |
|iter:1058| 23:57:01 |  -93.382484 | -2.66 | -2.68 |
|iter:1059| 23:57:04 |  -93.722077 | -1.84 | -2.69 |
|iter:1060| 23:57:08 |  -93.726858 | -2.62 | -2.57 |
|iter:1061| 23:57:11 |  -93.427800 | -1.93 | -2.49 |
|iter:1062| 23:57:14 |  -93.140875 | -2.43 | -2.60 |
|iter:1063| 23:57:17 |  -93.596200 | -1.44 | -2.64 |
|iter:1064| 23:57:20 |  -94.326852 | -1.19 | -2.67 |
|iter:1065| 23:57:23 |  -93.485232 | -1.48 | -2.60 |
|iter:1066| 23:57:26 |  -94.100350 | -1.50 | -2.52 |
|iter:1067| 23:57:29 |  -93.769941 | -2.45 | -2.40 |
|iter:1068| 23:57:32 |  -94.372699 | -1.61 | -2.35 |
|iter:1069| 23:57:35 |  -93.403246 | -1.28 | -2.28 |
|iter:1070| 23:57:38 |  -93.360899 | -1.86 | -2.43 |
|iter:1071| 23:57:42 |  -92.986866 | -1.78 | -2.54 |
|iter:1072| 23:57:45 |  -92.493528 | -2.15 | -2.50 |
|iter:1073| 23:57:48 |  -92.825154 | -2.46 | -2.41 |
|iter:1074| 23:57:52 |  -93.185226 | -2.16 | -2.55 |
|iter:1075| 23:57:55 |  -93.810534 | -1.26 | -2.71 |
|iter:1076| 23:57:59 |  -93.680109 | -3.27 | -2.60 |
|iter:1077| 23:58:02 |  -93.027159 | -1.75 | -2.47 |
|iter:1078| 23:58:05 |  -93.093178 | -3.09 | -2.50 |
|iter:1079| 23:58:09 |  -93.598839 | -1.64 | -2.60 |
|iter:1080| 23:58:12 |  -93.457873 | -2.88 | -2.64 |
|iter:1081| 23:58:15 |  -93.174295 | -2.40 | -2.56 |
|iter:1082| 23:58:19 |  -93.682750 | -1.39 | -2.60 |
|iter:1083| 23:58:23 |  -93.937249 | -1.72 | -2.60 |
|iter:1084| 23:58:26 |  -93.654929 | -2.52 | -2.47 |
|iter:1085| 23:58:29 |  -93.190633 | -1.65 | -2.41 |
|iter:1086| 23:58:33 |  -93.794795 | -1.13 | -2.60 |
|iter:1087| 23:58:36 |  -94.134218 | -1.58 | -2.75 |
|iter:1088| 23:58:40 |  -93.298906 | -1.28 | -2.67 |
|iter:1089| 23:58:43 |  -93.767436 | -1.88 | -2.59 |
|iter:1090| 23:58:46 |  -93.184575 | -1.49 | -2.51 |
|iter:1091| 23:58:50 |  -93.048786 | -2.27 | -2.52 |
|iter:1092| 23:58:53 |  -93.326485 | -2.29 | -2.54 |
|iter:1093| 23:58:56 |  -93.664874 | -1.59 | -2.77 |
|iter:1094| 23:59:00 |  -93.728025 | -2.07 | -2.68 |
|iter:1095| 23:59:04 |  -93.434676 | -2.17 | -2.57 |
|iter:1096| 23:59:07 |  -93.362103 | -2.47 | -2.50 |
|iter:1097| 23:59:10 |  -93.162392 | -2.31 | -2.60 |
|iter:1098| 23:59:14 |  -93.409139 | -2.11 | -2.60 |
|iter:1099| 23:59:17 |  -92.903566 | -1.93 | -2.73 |
|iter:1100| 23:59:21 |  -93.486579 | -1.34 | -2.60 |
|iter:1101| 23:59:24 |  -94.128316 | -1.01 | -2.90 |
|iter:1102| 23:59:27 |  -93.229125 | -1.24 | -2.82 |
|iter:1103| 23:59:30 |  -94.104758 | -1.00 | -2.75 |
|iter:1104| 23:59:33 |  -93.478852 | -1.74 | -2.67 |
|iter:1105| 23:59:35 |  -93.488639 | -2.30 | -2.59 |
|iter:1106| 23:59:38 |  -93.164522 | -1.91 | -2.57 |
|iter:1107| 23:59:41 |  -93.173422 | -2.75 | -2.62 |
|iter:1108| 23:59:44 |  -93.499530 | -2.05 | -2.62 |
|iter:1109| 23:59:48 |  -94.372390 | -1.03 | -2.70 |
|iter:1110| 23:59:51 |  -93.517351 | -1.44 | -2.62 |
|iter:1111| 23:59:55 |  -93.377984 | -1.99 | -2.54 |
|iter:1112| 23:59:58 |  -93.148331 | -1.91 | -2.59 |
|iter:1113| 00:00:01 |  -93.542345 | -1.54 | -2.66 |
|iter:1114| 00:00:05 |  -93.434940 | -3.93 | -2.85 |
|iter:1115| 00:00:08 |  -93.596478 | -2.39 | -2.68 |
|iter:1116| 00:00:12 |  -93.519705 | -3.69 | -2.66 |
|iter:1117| 00:00:15 |  -93.428960 | -3.11 | -2.62 |
|iter:1118| 00:00:19 |  -93.476403 | -3.76 | -2.66 |
|iter:1119| 00:00:22 |  -93.688701 | -2.34 | -2.69 |
|iter:1120| 00:00:25 |  -94.028997 | -1.91 | -2.60 |
|iter:1121| 00:00:29 |  -93.673431 | -2.12 | -2.43 |
|iter:1122| 00:00:32 |  -93.385339 | -2.05 | -2.45 |
|iter:1123| 00:00:36 |  -93.389031 | -2.58 | -2.61 |
|iter:1124| 00:00:39 |  -93.428905 | -4.75 | -2.63 |
|iter:1125| 00:00:42 |  -93.494038 | -3.37 | -2.66 |
|iter:1126| 00:00:46 |  -93.549762 | -3.17 | -2.65 |
|iter:1127| 00:00:49 |  -93.658643 | -2.89 | -2.62 |
|iter:1128| 00:00:52 |  -93.525897 | -2.64 | -2.62 |
|iter:1129| 00:00:56 |  -93.292653 | -2.41 | -2.60 |
|iter:1130| 00:00:59 |  -93.025379 | -2.45 | -2.68 |
|iter:1131| 00:01:03 |  -93.161698 | -3.10 | -2.64 |
|iter:1132| 00:01:06 |  -93.136017 | -4.62 | -2.74 |
|iter:1133| 00:01:10 |  -93.398274 | -2.33 | -2.71 |
|iter:1134| 00:01:13 |  -93.316014 | -3.19 | -2.82 |
|iter:1135| 00:01:16 |  -93.130049 | -2.71 | -2.66 |
|iter:1136| 00:01:20 |  -93.448059 | -1.85 | -2.68 |
|iter:1137| 00:01:23 |  -93.668150 | -1.82 | -2.79 |
|iter:1138| 00:01:27 |  -93.681531 | -2.52 | -2.71 |
|iter:1139| 00:01:30 |  -93.668033 | -3.68 | -2.63 |
|iter:1140| 00:01:33 |  -94.410511 | -1.38 | -2.48 |
|iter:1141| 00:01:37 |  -93.374414 | -1.17 | -2.34 |
|iter:1142| 00:01:40 |  -93.053653 | -1.99 | -2.43 |
|iter:1143| 00:01:43 |  -93.723908 | -1.03 | -2.53 |
|iter:1144| 00:01:47 |  -93.747489 | -2.06 | -2.74 |
|iter:1145| 00:01:50 |  -93.726791 | -3.22 | -2.66 |
|iter:1146| 00:01:54 |  -93.560329 | -2.48 | -2.58 |
|iter:1147| 00:01:57 |  -93.081717 | -1.90 | -2.46 |
|iter:1148| 00:02:00 |  -93.578451 | -1.37 | -2.53 |
|iter:1149| 00:02:04 |  -93.344366 | -2.34 | -2.75 |
|iter:1150| 00:02:07 |  -93.390195 | -4.35 | -2.67 |
|iter:1151| 00:02:10 |  -93.381526 | -4.57 | -2.62 |
|iter:1152| 00:02:13 |  -93.124493 | -2.41 | -2.61 |
|iter:1153| 00:02:16 |  -93.525483 | -1.55 | -2.58 |
|iter:1154| 00:02:19 |  -93.717523 | -1.80 | -2.77 |
|iter:1155| 00:02:23 |  -93.767915 | -2.36 | -2.69 |
|iter:1156| 00:02:25 |  -94.228900 | -1.69 | -2.61 |
|iter:1157| 00:02:29 |  -93.933242 | -2.77 | -2.53 |
|iter:1158| 00:02:32 |  -93.758662 | -2.67 | -2.46 |
|iter:1159| 00:02:35 |  -93.405956 | -1.79 | -2.36 |
|iter:1160| 00:02:39 |  -93.123184 | -2.26 | -2.48 |
|iter:1161| 00:02:42 |  -92.457084 | -2.57 | -2.53 |
|iter:1162| 00:02:46 |  -93.314836 | -1.90 | -2.57 |
|iter:1163| 00:02:49 |  -93.805156 | -1.27 | -2.78 |
|iter:1164| 00:02:53 |  -93.871665 | -1.93 | -2.62 |
|iter:1165| 00:02:56 |  -93.251009 | -1.50 | -2.45 |
|iter:1166| 00:03:00 |  -93.117343 | -2.17 | -2.48 |
|iter:1167| 00:03:03 |  -93.149282 | -3.47 | -2.57 |
|iter:1168| 00:03:07 |  -93.310137 | -2.83 | -2.63 |
|iter:1169| 00:03:10 |  -93.701976 | -1.66 | -2.72 |
|iter:1170| 00:03:14 |  -93.475704 | -2.39 | -2.64 |
|iter:1171| 00:03:17 |  -93.053400 | -2.13 | -2.51 |
|iter:1172| 00:03:20 |  -93.189351 | -3.26 | -2.54 |
|iter:1173| 00:03:24 |  -93.624575 | -1.74 | -2.66 |
|iter:1174| 00:03:27 |  -93.967481 | -1.69 | -2.65 |
|iter:1175| 00:03:31 |  -93.640659 | -2.29 | -2.58 |
|iter:1176| 00:03:34 |  -93.551540 | -2.65 | -2.50 |
|iter:1177| 00:03:38 |  -93.298978 | -1.88 | -2.47 |
|iter:1178| 00:03:41 |  -93.010187 | -2.24 | -2.58 |
|iter:1179| 00:03:45 |  -93.414883 | -1.68 | -2.60 |
|iter:1180| 00:03:48 |  -93.741267 | -1.47 | -2.87 |
|iter:1181| 00:03:51 |  -93.960033 | -1.77 | -2.79 |
|iter:1182| 00:03:55 |  -93.763772 | -3.41 | -2.71 |
|iter:1183| 00:03:58 |  -93.849194 | -3.22 | -2.63 |
|iter:1184| 00:04:02 |  -93.650042 | -2.33 | -2.55 |
|iter:1185| 00:04:05 |  -93.236269 | -1.83 | -2.42 |
|iter:1186| 00:04:08 |  -92.569431 | -2.17 | -2.54 |
|iter:1187| 00:04:12 |  -93.234709 | -1.71 | -2.53 |
|iter:1188| 00:04:15 |  -93.762463 | -1.11 | -2.81 |
|iter:1189| 00:04:18 |  -93.617536 | -3.26 | -2.68 |
|iter:1190| 00:04:21 |  -93.697811 | -2.89 | -2.60 |
|iter:1191| 00:04:24 |  -93.191516 | -1.53 | -2.49 |
|iter:1192| 00:04:27 |  -93.173400 | -2.19 | -2.54 |
|iter:1193| 00:04:30 |  -93.593865 | -1.58 | -2.65 |
|iter:1194| 00:04:33 |  -94.280995 | -1.10 | -2.78 |
|iter:1195| 00:04:36 |  -93.771862 | -2.28 | -2.70 |
|iter:1196| 00:04:39 |  -94.215396 | -1.73 | -2.62 |
|iter:1197| 00:04:42 |  -94.189483 | -2.84 | -2.54 |
|iter:1198| 00:04:46 |  -94.229242 | -3.28 | -2.46 |
|iter:1199| 00:04:49 |  -94.028252 | -2.59 | -2.38 |
|iter:1200| 00:04:53 |  -93.554620 | -1.73 | -2.25 |
|iter:1201| 00:04:56 |  -93.262343 | -2.00 | -2.43 |
|iter:1202| 00:04:59 |  -93.610435 | -1.59 | -2.61 |
|iter:1203| 00:05:03 |  -93.243877 | -1.80 | -2.60 |
|iter:1204| 00:05:06 |  -93.189965 | -2.55 | -2.54 |
|iter:1205| 00:05:10 |  -93.077380 | -2.65 | -2.64 |
|iter:1206| 00:05:13 |  -93.231926 | -2.88 | -2.61 |
|iter:1207| 00:05:16 |  -93.259333 | -3.44 | -2.72 |
|iter:1208| 00:05:20 |  -93.246074 | -4.66 | -2.72 |
|iter:1209| 00:05:23 |  -93.313051 | -3.43 | -2.68 |
|iter:1210| 00:05:27 |  -93.486664 | -2.66 | -2.68 |
|iter:1211| 00:05:30 |  -93.364777 | -2.68 | -2.68 |
|iter:1212| 00:05:33 |  -93.361314 | -3.28 | -2.58 |
|iter:1213| 00:05:37 |  -93.400866 | -3.88 | -2.62 |
|iter:1214| 00:05:40 |  -93.333838 | -3.13 | -2.64 |
|iter:1215| 00:05:43 |  -93.473660 | -2.40 | -2.64 |
|iter:1216| 00:05:47 |  -93.684518 | -2.09 | -2.68 |
|iter:1217| 00:05:50 |  -93.905379 | -1.98 | -2.57 |
|iter:1218| 00:05:54 |  -93.587828 | -2.21 | -2.48 |
|iter:1219| 00:05:57 |  -93.355783 | -2.15 | -2.47 |
|iter:1220| 00:06:00 |  -93.305706 | -2.52 | -2.60 |
|iter:1221| 00:06:04 |  -93.470408 | -2.29 | -2.66 |
|iter:1222| 00:06:07 |  -93.369489 | -2.98 | -2.68 |
|iter:1223| 00:06:11 |  -93.302683 | -3.29 | -2.63 |
|iter:1224| 00:06:14 |  -93.279098 | -3.54 | -2.66 |
|iter:1225| 00:06:18 |  -93.395756 | -2.71 | -2.69 |
|iter:1226| 00:06:21 |  -93.618659 | -2.09 | -2.73 |
|iter:1227| 00:06:24 |  -93.499257 | -3.09 | -2.66 |
|iter:1228| 00:06:28 |  -93.277340 | -2.25 | -2.56 |
|iter:1229| 00:06:30 |  -93.196943 | -2.79 | -2.66 |
|iter:1230| 00:06:33 |  -93.286912 | -3.27 | -2.66 |
|iter:1231| 00:06:36 |  -93.338765 | -3.25 | -2.73 |
|iter:1232| 00:06:39 |  -93.212546 | -2.69 | -2.72 |
|iter:1233| 00:06:42 |  -92.989439 | -2.77 | -2.66 |
|iter:1234| 00:06:45 |  -93.196986 | -2.73 | -2.61 |
|iter:1235| 00:06:48 |  -93.419355 | -2.13 | -2.76 |
|iter:1236| 00:06:52 |  -93.569988 | -2.03 | -2.78 |
|iter:1237| 00:06:55 |  -93.376010 | -2.36 | -2.63 |
|iter:1238| 00:06:58 |  -93.818204 | -1.41 | -2.55 |
|iter:1239| 00:07:02 |  -93.729266 | -3.01 | -2.63 |
|iter:1240| 00:07:05 |  -93.582580 | -2.77 | -2.55 |
|iter:1241| 00:07:09 |  -93.187332 | -1.79 | -2.46 |
|iter:1242| 00:07:12 |  -93.559110 | -1.55 | -2.58 |
|iter:1243| 00:07:16 |  -94.192264 | -1.27 | -2.72 |
|iter:1244| 00:07:19 |  -93.747416 | -2.22 | -2.64 |
|iter:1245| 00:07:22 |  -93.640878 | -2.60 | -2.56 |
|iter:1246| 00:07:26 |  -93.314940 | -1.64 | -2.44 |
|iter:1247| 00:07:29 |  -93.857069 | -1.34 | -2.57 |
|iter:1248| 00:07:32 |  -95.614051 | -0.80 | -2.67 |
|iter:1249| 00:07:36 |  -95.853817 | -1.42 | -2.59 |
|iter:1250| 00:07:39 |  -95.659415 | -2.67 | -2.51 |
|iter:1251| 00:07:43 |  -95.422681 | -3.64 | -2.43 |
|iter:1252| 00:07:46 |  -95.209895 | -3.31 | -2.35 |
|iter:1253| 00:07:49 |  -95.033050 | -3.44 | -2.27 |
|iter:1254| 00:07:53 |  -94.885665 | -3.26 | -2.19 |
|iter:1255| 00:07:56 |  -94.881743 | -3.92 | -2.11 |
|iter:1256| 00:08:00 |  -93.821438 | -1.54 | -2.01 |
|iter:1257| 00:08:03 |  -93.403924 | -1.71 | -2.23 |
|iter:1258| 00:08:06 |  -93.505272 | -3.35 | -2.35 |
|iter:1259| 00:08:10 |  -93.764205 | -2.03 | -2.50 |
|iter:1260| 00:08:13 |  -94.640585 | -1.37 | -2.40 |
|iter:1261| 00:08:17 |  -94.493894 | -2.61 | -2.32 |
|iter:1262| 00:08:20 |  -94.690269 | -2.79 | -2.24 |
|iter:1263| 00:08:23 |  -94.208716 | -2.19 | -2.16 |
|iter:1264| 00:08:27 |  -94.202994 | -2.83 | -2.10 |
|iter:1265| 00:08:30 |  -93.876695 | -1.98 | -2.11 |
|iter:1266| 00:08:33 |  -93.678347 | -2.36 | -2.17 |
|iter:1267| 00:08:37 |  -93.908870 | -2.45 | -2.26 |
|iter:1268| 00:08:40 |  -93.981757 | -2.79 | -2.29 |
|iter:1269| 00:08:43 |  -93.993884 | -3.37 | -2.26 |
|iter:1270| 00:08:46 |  -93.861314 | -2.90 | -2.24 |
|iter:1271| 00:08:49 |  -93.606942 | -2.27 | -2.28 |
|iter:1272| 00:08:52 |  -93.374620 | -2.10 | -2.38 |
|iter:1273| 00:08:54 |  -93.169431 | -2.41 | -2.61 |
|iter:1274| 00:08:57 |  -93.090383 | -2.58 | -2.62 |
|iter:1275| 00:09:00 |  -93.002135 | -2.97 | -2.56 |
|iter:1276| 00:09:03 |  -93.027568 | -4.27 | -2.52 |
|iter:1277| 00:09:07 |  -93.100811 | -4.30 | -2.56 |
|iter:1278| 00:09:10 |  -93.042624 | -4.03 | -2.70 |
|iter:1279| 00:09:13 |  -92.856828 | -3.00 | -2.61 |
|iter:1280| 00:09:17 |  -92.607217 | -3.12 | -2.48 |
|iter:1281| 00:09:20 |  -92.975245 | -2.68 | -2.49 |
|iter:1282| 00:09:23 |  -93.026052 | -3.22 | -2.59 |
|iter:1283| 00:09:27 |  -93.281727 | -2.56 | -2.58 |
|iter:1284| 00:09:30 |  -93.698832 | -1.60 | -2.78 |
|iter:1285| 00:09:34 |  -93.163216 | -1.59 | -2.67 |
|iter:1286| 00:09:37 |  -92.545882 | -2.12 | -2.56 |
|iter:1287| 00:09:40 |  -93.463096 | -1.01 | -2.45 |
|iter:1288| 00:09:44 |  -93.971127 | -1.10 | -2.74 |
|iter:1289| 00:09:47 |  -94.916665 | -0.98 | -2.66 |
|iter:1290| 00:09:50 |  -93.642116 | -1.44 | -2.58 |
|iter:1291| 00:09:54 |  -94.547083 | -1.30 | -2.50 |
|iter:1292| 00:09:57 |  -93.998041 | -2.18 | -2.42 |
|iter:1293| 00:10:00 |  -93.926952 | -2.79 | -2.34 |
|iter:1294| 00:10:04 |  -93.247372 | -1.18 | -2.29 |
|iter:1295| 00:10:07 |  -94.114740 | -1.07 | -2.49 |
|iter:1296| 00:10:11 |  -93.308910 | -1.29 | -2.52 |
|iter:1297| 00:10:14 |  -93.868593 | -1.50 | -2.37 |
|iter:1298| 00:10:17 |  -93.663883 | -3.17 | -2.54 |
|iter:1299| 00:10:21 |  -93.789805 | -2.73 | -2.44 |
|iter:1300| 00:10:24 |  -95.169978 | -1.19 | -2.45 |
|iter:1301| 00:10:27 |  -94.226505 | -1.95 | -2.37 |
|iter:1302| 00:10:31 |  -94.685459 | -2.40 | -2.29 |
|iter:1303| 00:10:34 |  -95.160095 | -2.23 | -2.21 |
|iter:1304| 00:10:38 |  -95.341297 | -2.56 | -2.13 |
|iter:1305| 00:10:41 |  -94.103003 | -1.66 | -1.97 |
|iter:1306| 00:10:44 |  -93.794931 | -2.02 | -2.19 |
|iter:1307| 00:10:48 |  -93.999685 | -3.06 | -2.26 |
|iter:1308| 00:10:51 |  -93.865624 | -3.02 | -2.30 |
|iter:1309| 00:10:54 |  -94.023309 | -2.72 | -2.30 |
|iter:1310| 00:10:58 |  -94.147426 | -2.94 | -2.29 |
|iter:1311| 00:11:01 |  -93.788116 | -2.13 | -2.23 |
|iter:1312| 00:11:05 |  -93.704866 | -2.59 | -2.27 |
|iter:1313| 00:11:08 |  -93.623862 | -2.70 | -2.35 |
|iter:1314| 00:11:11 |  -93.256582 | -2.04 | -2.48 |
|iter:1315| 00:11:14 |  -93.135476 | -2.58 | -2.65 |
|iter:1316| 00:11:16 |  -93.078258 | -2.73 | -2.56 |
|iter:1317| 00:11:19 |  -93.031614 | -3.22 | -2.57 |
|iter:1318| 00:11:22 |  -93.115290 | -3.09 | -2.55 |
|iter:1319| 00:11:25 |  -93.032454 | -3.53 | -2.63 |
|iter:1320| 00:11:28 |  -93.221408 | -2.77 | -2.55 |
|iter:1321| 00:11:31 |  -93.443905 | -2.65 | -2.74 |
|iter:1322| 00:11:35 |  -93.074770 | -2.13 | -2.76 |
|iter:1323| 00:11:38 |  -93.055441 | -2.93 | -2.68 |
|iter:1324| 00:11:41 |  -92.776878 | -2.52 | -2.53 |
|iter:1325| 00:11:45 |  -93.024656 | -2.59 | -2.50 |
|iter:1326| 00:11:48 |  -93.320690 | -2.27 | -2.60 |
|iter:1327| 00:11:52 |  -93.261764 | -3.63 | -2.56 |
|iter:1328| 00:11:55 |  -93.556458 | -1.83 | -2.55 |
|iter:1329| 00:11:58 |  -94.404191 | -1.14 | -2.56 |
|iter:1330| 00:12:02 |  -94.889888 | -1.33 | -2.48 |
|iter:1331| 00:12:05 |  -93.014285 | -0.90 | -2.40 |
|iter:1332| 00:12:08 |  -93.183190 | -1.73 | -2.36 |
|iter:1333| 00:12:12 |  -93.176934 | -2.39 | -2.47 |
|iter:1334| 00:12:15 |  -93.192509 | -3.15 | -2.50 |
|iter:1335| 00:12:18 |  -93.177974 | -3.82 | -2.54 |
|iter:1336| 00:12:22 |  -93.186406 | -5.39 | -2.56 |
|iter:1337| 00:12:25 |  -93.116142 | -3.43 | -2.60 |
|iter:1338| 00:12:29 |  -93.136252 | -4.92 | -2.58 |
|iter:1339| 00:12:32 |  -93.103391 | -4.01 | -2.59 |
|iter:1340| 00:12:35 |  -93.070171 | -4.44 | -2.55 |
|iter:1341| 00:12:39 |  -92.959640 | -3.34 | -2.54 |
|iter:1342| 00:12:42 |  -93.019184 | -4.00 | -2.53 |
|iter:1343| 00:12:45 |  -93.188179 | -3.12 | -2.55 |
|iter:1344| 00:12:49 |  -93.238981 | -3.64 | -2.72 |
|iter:1345| 00:12:52 |  -93.315441 | -3.16 | -2.81 |
|iter:1346| 00:12:55 |  -93.514341 | -1.76 | -2.78 |
|iter:1347| 00:12:59 |  -93.986203 | -1.49 | -2.73 |
|iter:1348| 00:13:02 |  -93.148686 | -1.18 | -2.65 |
|iter:1349| 00:13:06 |  -93.124382 | -1.97 | -2.48 |
|iter:1350| 00:13:09 |  -93.092455 | -2.60 | -2.52 |
|iter:1351| 00:13:12 |  -92.635491 | -2.24 | -2.57 |
|iter:1352| 00:13:16 |  -92.930090 | -2.50 | -2.47 |
|iter:1353| 00:13:19 |  -92.682266 | -2.75 | -2.61 |
|iter:1354| 00:13:22 |  -92.605355 | -3.45 | -2.51 |
|iter:1355| 00:13:25 |  -92.375295 | -3.64 | -2.49 |
|iter:1356| 00:13:28 |  -92.827858 | -3.44 | -2.52 |
|iter:1357| 00:13:31 |  -93.158461 | -2.78 | -2.55 |
|iter:1358| 00:13:34 |  -93.345735 | -2.37 | -2.78 |
|iter:1359| 00:13:36 |  -93.252459 | -3.12 | -2.82 |
|iter:1360| 00:13:39 |  -93.217261 | -3.45 | -2.74 |
|iter:1361| 00:13:42 |  -93.736078 | -1.42 | -2.66 |
|iter:1362| 00:13:45 |  -93.472430 | -2.18 | -2.67 |
|iter:1363| 00:13:49 |  -93.368390 | -2.48 | -2.59 |
|iter:1364| 00:13:52 |  -93.752160 | -1.45 | -2.52 |
|iter:1365| 00:13:55 |  -95.555312 | -0.79 | -2.45 |
|iter:1366| 00:13:59 |  -94.970420 | -2.57 | -2.37 |
|iter:1367| 00:14:02 |  -94.842661 | -3.96 | -2.29 |
|iter:1368| 00:14:05 |  -94.831194 | -4.55 | -2.22 |
|iter:1369| 00:14:09 |  -93.479442 | -1.26 | -2.07 |
|iter:1370| 00:14:12 |  -93.486130 | -1.73 | -2.33 |
|iter:1371| 00:14:15 |  -93.159548 | -1.77 | -2.30 |
|iter:1372| 00:14:19 |  -92.977612 | -2.23 | -2.29 |
|iter:1373| 00:14:22 |  -92.834702 | -2.59 | -2.37 |
|iter:1374| 00:14:26 |  -92.330181 | -2.33 | -2.39 |
|iter:1375| 00:14:29 |  -92.707129 | -2.25 | -2.33 |
|iter:1376| 00:14:32 |  -93.126709 | -2.41 | -2.47 |
|iter:1377| 00:14:36 |  -92.483263 | -2.17 | -2.54 |
|iter:1378| 00:14:39 |  -93.288449 | -1.42 | -2.46 |
|iter:1379| 00:14:42 |  -93.350383 | -2.05 | -2.58 |
|iter:1380| 00:14:46 |  -93.011106 | -2.38 | -2.51 |
|iter:1381| 00:14:49 |  -93.366516 | -1.89 | -2.41 |
|iter:1382| 00:14:53 |  -93.036480 | -2.19 | -2.69 |
|iter:1383| 00:14:56 |  -93.162940 | -3.64 | -2.61 |
|iter:1384| 00:15:00 |  -93.258025 | -3.10 | -2.54 |
|iter:1385| 00:15:03 |  -93.296407 | -3.46 | -2.53 |
|iter:1386| 00:15:07 |  -93.589660 | -1.92 | -2.58 |
|iter:1387| 00:15:10 |  -94.401736 | -1.29 | -2.67 |
|iter:1388| 00:15:14 |  -93.733779 | -1.81 | -2.59 |
|iter:1389| 00:15:17 |  -93.447480 | -1.96 | -2.52 |
|iter:1390| 00:15:21 |  -93.196256 | -1.77 | -2.40 |
|iter:1391| 00:15:24 |  -93.217366 | -2.61 | -2.36 |
|iter:1392| 00:15:27 |  -93.241292 | -4.03 | -2.51 |
|iter:1393| 00:15:30 |  -93.245454 | -5.33 | -2.50 |
|iter:1394| 00:15:32 |  -93.283589 | -3.76 | -2.51 |
|iter:1395| 00:15:35 |  -93.342067 | -3.47 | -2.53 |
|iter:1396| 00:15:38 |  -93.505849 | -2.57 | -2.57 |
|iter:1397| 00:15:41 |  -93.647883 | -2.23 | -2.64 |
|iter:1398| 00:15:44 |  -93.500750 | -2.72 | -2.58 |
|iter:1399| 00:15:48 |  -93.312169 | -2.33 | -2.48 |
|iter:1400| 00:15:51 |  -93.649545 | -1.57 | -2.56 |
|iter:1401| 00:15:55 |  -93.692994 | -2.27 | -2.71 |
|iter:1402| 00:15:58 |  -93.459779 | -2.32 | -2.63 |
|iter:1403| 00:16:02 |  -94.235604 | -1.23 | -2.55 |
|iter:1404| 00:16:05 |  -93.709817 | -2.03 | -2.51 |
|iter:1405| 00:16:09 |  -93.408665 | -2.12 | -2.39 |
|iter:1406| 00:16:12 |  -93.354066 | -2.41 | -2.43 |
|iter:1407| 00:16:16 |  -93.339945 | -2.90 | -2.50 |
|iter:1408| 00:16:19 |  -93.469528 | -2.51 | -2.50 |
|iter:1409| 00:16:23 |  -93.917465 | -1.62 | -2.58 |
|iter:1410| 00:16:26 |  -93.539172 | -1.95 | -2.50 |
|iter:1411| 00:16:30 |  -93.524354 | -2.58 | -2.38 |
|iter:1412| 00:16:33 |  -93.483704 | -2.82 | -2.48 |
|iter:1413| 00:16:37 |  -93.638051 | -2.41 | -2.50 |
|iter:1414| 00:16:40 |  -93.826391 | -2.30 | -2.52 |
|iter:1415| 00:16:43 |  -93.631897 | -2.56 | -2.44 |
|iter:1416| 00:16:47 |  -93.637846 | -3.28 | -2.40 |
|iter:1417| 00:16:51 |  -93.445011 | -2.16 | -2.41 |
|iter:1418| 00:16:54 |  -93.607288 | -2.67 | -2.48 |
|iter:1419| 00:16:57 |  -93.619788 | -3.22 | -2.51 |
|iter:1420| 00:17:01 |  -93.462843 | -2.49 | -2.48 |
|iter:1421| 00:17:04 |  -93.515384 | -4.57 | -2.49 |
|iter:1422| 00:17:08 |  -93.705103 | -2.25 | -2.53 |
|iter:1423| 00:17:11 |  -93.481449 | -2.19 | -2.49 |
|iter:1424| 00:17:15 |  -93.478447 | -2.92 | -2.47 |
|iter:1425| 00:17:18 |  -93.348706 | -2.45 | -2.55 |
|iter:1426| 00:17:21 |  -93.191503 | -2.47 | -2.59 |
|iter:1427| 00:17:24 |  -92.942361 | -2.47 | -2.72 |
|iter:1428| 00:17:28 |  -93.204986 | -2.41 | -2.61 |
|iter:1429| 00:17:30 |  -93.201703 | -3.33 | -2.79 |
|iter:1430| 00:17:33 |  -93.524169 | -1.85 | -2.75 |
|iter:1431| 00:17:36 |  -93.967636 | -1.54 | -2.70 |
|iter:1432| 00:17:39 |  -93.117113 | -1.22 | -2.62 |
|iter:1433| 00:17:42 |  -93.289986 | -2.50 | -2.55 |
|iter:1434| 00:17:45 |  -92.958651 | -2.21 | -2.65 |
|iter:1435| 00:17:49 |  -92.971157 | -3.23 | -2.56 |
|iter:1436| 00:17:53 |  -92.798518 | -2.85 | -2.58 |
|iter:1437| 00:17:56 |  -93.117620 | -2.32 | -2.55 |
|iter:1438| 00:17:59 |  -93.529563 | -1.64 | -2.76 |
|iter:1439| 00:18:03 |  -94.633844 | -0.88 | -2.80 |
|iter:1440| 00:18:06 |  -94.007619 | -2.43 | -2.72 |
|iter:1441| 00:18:09 |  -94.291071 | -2.47 | -2.64 |
|iter:1442| 00:18:13 |  -94.340571 | -3.01 | -2.56 |
|iter:1443| 00:18:16 |  -94.362906 | -3.37 | -2.48 |
|iter:1444| 00:18:19 |  -94.262278 | -3.57 | -2.40 |
|iter:1445| 00:18:23 |  -93.890625 | -2.22 | -2.32 |
|iter:1446| 00:18:26 |  -93.391191 | -1.66 | -2.29 |
|iter:1447| 00:18:30 |  -92.881176 | -2.11 | -2.50 |
|iter:1448| 00:18:33 |  -93.109569 | -3.76 | -2.58 |
|iter:1449| 00:18:37 |  -93.440109 | -1.94 | -2.62 |
|iter:1450| 00:18:40 |  -93.361787 | -3.37 | -2.77 |
|iter:1451| 00:18:43 |  -93.358026 | -3.95 | -2.69 |
|iter:1452| 00:18:47 |  -93.089553 | -2.38 | -2.53 |
|iter:1453| 00:18:50 |  -92.789539 | -2.74 | -2.44 |
|iter:1454| 00:18:54 |  -92.654041 | -2.86 | -2.42 |
|iter:1455| 00:18:57 |  -92.494347 | -3.23 | -2.40 |
|iter:1456| 00:19:00 |  -92.451581 | -3.46 | -2.40 |
|iter:1457| 00:19:04 |  -92.387252 | -3.91 | -2.39 |
|iter:1458| 00:19:07 |  -92.678039 | -2.87 | -2.37 |
|iter:1459| 00:19:11 |  -92.948148 | -2.82 | -2.59 |
|iter:1460| 00:19:14 |  -93.150818 | -2.70 | -2.68 |
|iter:1461| 00:19:18 |  -93.302700 | -2.41 | -2.77 |
|iter:1462| 00:19:21 |  -93.648150 | -1.45 | -2.80 |
|iter:1463| 00:19:24 |  -93.644844 | -2.34 | -2.77 |
|iter:1464| 00:19:28 |  -93.681210 | -3.06 | -2.69 |
|iter:1465| 00:19:31 |  -94.580937 | -1.38 | -2.53 |
|iter:1466| 00:19:34 |  -93.053173 | -0.83 | -2.45 |
|iter:1467| 00:19:37 |  -92.947623 | -1.82 | -2.41 |
|iter:1468| 00:19:40 |  -92.614729 | -2.06 | -2.40 |
|iter:1469| 00:19:42 |  -92.494517 | -2.72 | -2.43 |
|iter:1470| 00:19:46 |  -92.229627 | -2.59 | -2.46 |
|iter:1471| 00:19:48 |  -92.180490 | -3.46 | -2.40 |
|iter:1472| 00:19:51 |  -92.197021 | -4.33 | -2.39 |
|iter:1473| 00:19:55 |  -92.588033 | -2.64 | -2.39 |
|iter:1474| 00:19:58 |  -92.945297 | -2.65 | -2.60 |
|iter:1475| 00:20:01 |  -93.192248 | -2.31 | -2.70 |
|iter:1476| 00:20:05 |  -93.128545 | -3.85 | -2.78 |
|iter:1477| 00:20:08 |  -92.641261 | -2.42 | -2.67 |
|iter:1478| 00:20:12 |  -93.420037 | -1.19 | -2.59 |
|iter:1479| 00:20:15 |  -93.827951 | -1.21 | -2.93 |
|iter:1480| 00:20:19 |  -94.793181 | -0.95 | -2.85 |
|iter:1481| 00:20:22 |  -93.030272 | -0.89 | -2.77 |
|iter:1482| 00:20:26 |  -94.044582 | -0.91 | -2.69 |
|iter:1483| 00:20:29 |  -93.840693 | -3.03 | -2.52 |
|iter:1484| 00:20:33 |  -96.519769 | -0.65 | -2.44 |
|iter:1485| 00:20:36 |  -96.578154 | -1.40 | -2.36 |
|iter:1486| 00:20:40 |  -96.334655 | -2.86 | -2.28 |
|iter:1487| 00:20:43 |  -96.060411 | -3.55 | -2.21 |
|iter:1488| 00:20:47 |  -95.784678 | -3.29 | -2.13 |
|iter:1489| 00:20:50 |  -95.782142 | -4.18 | -2.05 |
|iter:1490| 00:20:53 |  -95.821510 | -5.45 | -1.97 |
|iter:1491| 00:20:57 |  -94.220837 | -1.59 | -1.83 |
|iter:1492| 00:21:00 |  -93.299171 | -1.30 | -2.17 |
|iter:1493| 00:21:04 |  -92.749157 | -1.94 | -2.44 |
|iter:1494| 00:21:07 |  -90.726673 | -1.61 | -2.45 |
|iter:1495| 00:21:11 |  -90.979356 | -3.39 | -2.37 |
|iter:1496| 00:21:14 |  -90.984748 | -4.73 | -2.29 |
|iter:1497| 00:21:18 |  -90.988991 | -6.02c| -2.21 |
|iter:1498| 00:21:21 |  -92.981791 | -1.01 | -2.08 |
|iter:1499| 00:21:24 |  -92.917192 | -2.13 | -2.60 |
|iter:1500| 00:21:28 |  -92.984866 | -2.60 | -2.53 |
|iter:1501| 00:21:31 |  -92.971515 | -3.79 | -2.59 |
|iter:1502| 00:21:34 |  -92.975754 | -4.65 | -2.54 |
|iter:1503| 00:21:38 |  -93.019106 | -3.88 | -2.55 |
|iter:1504| 00:21:40 |  -93.157791 | -3.02 | -2.56 |
|iter:1505| 00:21:43 |  -93.451668 | -2.18 | -2.62 |
|iter:1506| 00:21:46 |  -94.050525 | -1.27 | -2.65 |
|iter:1507| 00:21:49 |  -94.236077 | -1.73 | -2.57 |
|iter:1508| 00:21:53 |  -94.256920 | -2.40 | -2.49 |
|iter:1509| 00:21:55 |  -93.947510 | -2.59 | -2.41 |
|iter:1510| 00:21:59 |  -93.281116 | -1.47 | -2.26 |
|iter:1511| 00:22:03 |  -92.879484 | -2.10 | -2.38 |
|iter:1512| 00:22:06 |  -91.975034 | -1.79 | -2.43 |
|iter:1513| 00:22:10 |  -92.812750 | -1.74 | -2.35 |
|iter:1514| 00:22:13 |  -93.295433 | -1.74 | -2.53 |
|iter:1515| 00:22:16 |  -93.384988 | -2.21 | -2.72 |
|iter:1516| 00:22:20 |  -93.337791 | -4.05 | -2.68 |
|iter:1517| 00:22:23 |  -93.328123 | -4.65 | -2.61 |
|iter:1518| 00:22:27 |  -93.348425 | -4.20 | -2.59 |
|iter:1519| 00:22:30 |  -93.357490 | -4.51 | -2.59 |
|iter:1520| 00:22:33 |  -93.365040 | -4.39 | -2.58 |
|iter:1521| 00:22:37 |  -93.398269 | -3.86 | -2.58 |
|iter:1522| 00:22:40 |  -93.374689 | -3.96 | -2.57 |
|iter:1523| 00:22:44 |  -93.445315 | -3.22 | -2.57 |
|iter:1524| 00:22:47 |  -93.587039 | -2.70 | -2.63 |
|iter:1525| 00:22:50 |  -93.634286 | -3.01 | -2.65 |
|iter:1526| 00:22:54 |  -93.435180 | -2.18 | -2.48 |
