  __  _  _
 | _ |_)|_||  |
 |__||  | ||/\| - 25.7.1b1

User:   luis-ochoa@luis-pc
Date:   Sun May 24 01:24:52 2026
Arch:   x86_64
Pid:    110841
CWD:    /home/luis-ochoa/Documents/Vscode/py/dft
units:  Angstrom and eV
cores:  22
OpenMP: False

Versions:
  Python: 3.12.3
  ASE:    3.28.0
  Numpy:  2.4.4
  Scipy:  1.17.1
  Libxc:  7.0.0

Paths:
  gpaw:  /tmp/gpaw_master/gpaw
  _gpaw: /tmp/gpaw_master/_gpaw.cpython-312-x86_64-linux-gnu.so
  ase:   /home/luis-ochoa/Documents/Vscode/py/dft/.venv/lib/python3.12/site-packages/ase
  numpy: /home/luis-ochoa/Documents/Vscode/py/dft/.venv/lib/python3.12/site-packages/numpy
  scipy: /home/luis-ochoa/Documents/Vscode/py/dft/.venv/lib/python3.12/site-packages/scipy

Git-hashes:
  gpaw:  33e6740c92
  _gpaw: 33e6740c92

OMP_NUM_THREADS: 


Environment variables:
  GPAW_CPUPY:          False
  GPAW_DEBUG:          False
  GPAW_INITIALIZE_MPI: True
  GPAW_MPI_BACKEND:    cgpaw
  GPAW_NO_C_EXTENSION: False
  GPAW_NO_GPU_MPI:     False
  GPAW_TRACE:          False
  GPAW_USE_GPUS:       False

Input parameters:
  mode=PW(ecut=450.00000000000006),
  convergence={'density': 0.01, 'eigenstates': 1e-05, 'energy': 0.001},
  eigensolver=Davidson(niter=3),
  kpts=MonkhorstPack(size=[6, 6, 6], gamma=True),
  maxiter=500,
  mixer=Mixer(backend='msr1', beta=0.05, nmaxold=10),
  occupations=Occupations(name='fermi-dirac', width=0.2),
  parallel={'domain': 1},
  setups={'Sn': ':s,3.4'},
  xc=XC(name='MGGA_X_R2SCAN+MGGA_C_R2SCAN')

Diagonalizing LCAO Hamiltonian
Converting LCAO to pw mode

Atoms  # Å, Bohr magnetons
|   | symbol |        x |        y |        z |    initial magnetic moments |
|---|--------|----------|----------|----------|-----------------------------|
| 0 |     Cs | 3.100000 | 3.100000 | 3.100000 | ( 0.0000,  0.0000,  0.0000) |
| 1 |     Sn | 0.000000 | 0.000000 | 0.000000 | ( 0.0000,  0.0000,  0.0000) |
| 2 |      I | 3.100000 | 0.000000 | 0.000000 | ( 0.0000,  0.0000,  0.0000) |
| 3 |      I | 0.000000 | 3.100000 | 0.000000 | ( 0.0000,  0.0000,  0.0000) |
| 4 |      I | 0.000000 | 0.000000 | 3.100000 | ( 0.0000,  0.0000,  0.0000) |


Unit cell  # Å
| periodic |        x |        y |        z |  lengths |    angles |
|----------|----------|----------|----------|----------|-----------|
|      yes | 6.200000 | 0.000000 | 0.000000 | 6.200000 | 90.000000 |
|      yes | 0.000000 | 6.200000 | 0.000000 | 6.200000 | 90.000000 |
|      yes | 0.000000 | 0.000000 | 6.200000 | 6.200000 | 90.000000 |


Number of symmetries: 48
Symmetry operations  # r_c * U_cc + t_c -> r_c
|    | kind |            matrix            |
|----|------|------------------------------|
|  0 |  E   |  1, 0, 0,  0, 1, 0,  0, 0, 1 |
|  1 |  σ   |  1, 0, 0,  0, 1, 0,  0, 0,-1 |
|  2 |  σ   |  1, 0, 0,  0, 0, 1,  0, 1, 0 |
|  3 |  C4  |  1, 0, 0,  0, 0, 1,  0,-1, 0 |
|  4 |  C4  |  1, 0, 0,  0, 0,-1,  0, 1, 0 |
|  5 |  σ   |  1, 0, 0,  0, 0,-1,  0,-1, 0 |
|  6 |  σ   |  1, 0, 0,  0,-1, 0,  0, 0, 1 |
|  7 |  C2  |  1, 0, 0,  0,-1, 0,  0, 0,-1 |
|  8 |  σ   |  0, 1, 0,  1, 0, 0,  0, 0, 1 |
|  9 |  C2  |  0, 1, 0,  1, 0, 0,  0, 0,-1 |
| 10 |  C3  |  0, 1, 0,  0, 0, 1,  1, 0, 0 |
| 11 |  S6  |  0, 1, 0,  0, 0, 1, -1, 0, 0 |
| 12 |  S6  |  0, 1, 0,  0, 0,-1,  1, 0, 0 |
| 13 |  C3  |  0, 1, 0,  0, 0,-1, -1, 0, 0 |
| 14 |  C4  |  0, 1, 0, -1, 0, 0,  0, 0, 1 |
| 15 |  S4  |  0, 1, 0, -1, 0, 0,  0, 0,-1 |
| 16 |  C3  |  0, 0, 1,  1, 0, 0,  0, 1, 0 |
| 17 |  S6  |  0, 0, 1,  1, 0, 0,  0,-1, 0 |
| 18 |  σ   |  0, 0, 1,  0, 1, 0,  1, 0, 0 |
| 19 |  C4  |  0, 0, 1,  0, 1, 0, -1, 0, 0 |
| 20 |  C2  |  0, 0, 1,  0,-1, 0,  1, 0, 0 |
| 21 |  S4  |  0, 0, 1,  0,-1, 0, -1, 0, 0 |
| 22 |  S6  |  0, 0, 1, -1, 0, 0,  0, 1, 0 |
| 23 |  C3  |  0, 0, 1, -1, 0, 0,  0,-1, 0 |
| 24 |  S6  |  0, 0,-1,  1, 0, 0,  0, 1, 0 |
| 25 |  C3  |  0, 0,-1,  1, 0, 0,  0,-1, 0 |
| 26 |  C4  |  0, 0,-1,  0, 1, 0,  1, 0, 0 |
| 27 |  σ   |  0, 0,-1,  0, 1, 0, -1, 0, 0 |
| 28 |  S4  |  0, 0,-1,  0,-1, 0,  1, 0, 0 |
| 29 |  C2  |  0, 0,-1,  0,-1, 0, -1, 0, 0 |
| 30 |  C3  |  0, 0,-1, -1, 0, 0,  0, 1, 0 |
| 31 |  S6  |  0, 0,-1, -1, 0, 0,  0,-1, 0 |
| 32 |  C4  |  0,-1, 0,  1, 0, 0,  0, 0, 1 |
| 33 |  S4  |  0,-1, 0,  1, 0, 0,  0, 0,-1 |
| 34 |  S6  |  0,-1, 0,  0, 0, 1,  1, 0, 0 |
| 35 |  C3  |  0,-1, 0,  0, 0, 1, -1, 0, 0 |
| 36 |  C3  |  0,-1, 0,  0, 0,-1,  1, 0, 0 |
| 37 |  S6  |  0,-1, 0,  0, 0,-1, -1, 0, 0 |
| 38 |  σ   |  0,-1, 0, -1, 0, 0,  0, 0, 1 |
| 39 |  C2  |  0,-1, 0, -1, 0, 0,  0, 0,-1 |
| 40 |  σ   | -1, 0, 0,  0, 1, 0,  0, 0, 1 |
| 41 |  C2  | -1, 0, 0,  0, 1, 0,  0, 0,-1 |
| 42 |  C2  | -1, 0, 0,  0, 0, 1,  0, 1, 0 |
| 43 |  S4  | -1, 0, 0,  0, 0, 1,  0,-1, 0 |
| 44 |  S4  | -1, 0, 0,  0, 0,-1,  0, 1, 0 |
| 45 |  C2  | -1, 0, 0,  0, 0,-1,  0,-1, 0 |
| 46 |  C2  | -1, 0, 0,  0,-1, 0,  0, 0, 1 |
| 47 |  i   | -1, 0, 0,  0,-1, 0,  0, 0,-1 |

BZ-sampling:
  Number of BZ points: 216
  Number of IBZ points: 20

  Monkhorst-Pack size: [6, 6, 6]
  Monkhorst-Pack shift: [0.08333333333333333, 0.08333333333333333, 0.08333333333333333]

K-points  # in reciprocal-cell coordinates
|     |                                coordinates |     weight |
|-----|--------------------------------------------|------------|
|   0 | (  0.00000000,   0.00000000,   0.00000000) | 0.00462963 |
|   1 | (  0.16666667,   0.00000000,   0.00000000) | 0.02777778 |
|   2 | (  0.16666667,   0.16666667,   0.00000000) | 0.05555556 |
|   3 | (  0.16666667,   0.16666667,   0.16666667) | 0.03703704 |
|   4 | (  0.33333333,   0.00000000,   0.00000000) | 0.02777778 |
|   5 | (  0.33333333,   0.16666667,   0.00000000) | 0.11111111 |
|   6 | (  0.33333333,   0.16666667,   0.16666667) | 0.11111111 |
|   7 | (  0.33333333,   0.33333333,   0.00000000) | 0.05555556 |
|   8 | (  0.33333333,   0.33333333,   0.16666667) | 0.11111111 |
|   9 | (  0.33333333,   0.33333333,   0.33333333) | 0.03703704 |
| ... |                                            |            |
|  19 | (  0.50000000,   0.50000000,   0.50000000) | 0.00462963 |

Plane wave coefficients: 5232
Cutoff: 450.00000000000006 eV

Spin-components: 1 (collinear spins)
Bands:           26
Projectors:      26
Spin-degeneracy: 2
Datatype:        complex128

Memory:
  Storage: CPU
  Wave functions: 43_139_200 bytes (1_960_872 per core)
  Projectors: 49_776_000 bytes (4_525_090 per core)

Parallelization:
  kpt:    11
  domain: 1
  band:   2

Density:
  Valence electrons: 44.0
  Components: 1
  Grid points: [32 32 32]
  Charge: 0.0  # |e|

Potential:
  Grid points: [32 32 32]

species:
  Cs:
    name:    Caesium
    id:      fa822afd343f47335d508b9ee4f394c3
    Z:       55.0
    valence: 9
    core:    46
    charge:  0.0  # [|e|]
    file:    /home/luis-ochoa/Documents/Vscode/py/dft/.venv/lib/python3.12/site-packages/gpaw_data/setups/Cs.PBE.gz
    compensation charges:
      type: gauss
      rc: 0.33  # [Å]
      lmax: 2
    cutoffs:
      filter: 2.06  # [Å]
      core: 2.51  # [Å]
    projectors
    | kind |    occ | energy [eV] | rcut [Å] |
    |------|--------|-------------|----------|
    |   5s |  2.000 |     -26.706 |    1.164 |
    |   6s |  1.000 |      -2.085 |    1.164 |
    |   5p |  6.000 |     -13.523 |    1.058 |
    |    p |        |      13.688 |    1.058 |
    |    d |        |       0.000 |    1.058 |
  
    Using partial waves for Cs as LCAO basis

  Sn:
    name:    Tin
    id:      d1329c6b410f1e0bd923643368775dcd
    Z:       50.0
    valence: 14
    core:    36
    charge:  0.0  # [|e|]
    Hubbard: {U: 3.4,  # eV
              l: 0,
              scale: True}
    file:    /home/luis-ochoa/Documents/Vscode/py/dft/.venv/lib/python3.12/site-packages/gpaw_data/setups/Sn.PBE.gz
    compensation charges:
      type: gauss
      rc: 0.38  # [Å]
      lmax: 2
    cutoffs:
      filter: 2.23  # [Å]
      core: 2.35  # [Å]
    projectors
    | kind |    occ | energy [eV] | rcut [Å] |
    |------|--------|-------------|----------|
    |   5s |  2.000 |     -10.538 |    1.201 |
    |   5p |  2.000 |      -3.696 |    1.270 |
    |   4d | 10.000 |     -25.845 |    1.185 |
    |    s |        |      16.674 |    1.201 |
    |    p |        |      23.515 |    1.270 |
    |    d |        |       1.367 |    1.185 |
  
    Using partial waves for Sn as LCAO basis

  I:
    name:    Iodine
    id:      91405a398e4dfe788ff04f57531604ec
    Z:       53.0
    valence: 7
    core:    46
    charge:  0.0  # [|e|]
    file:    /home/luis-ochoa/Documents/Vscode/py/dft/.venv/lib/python3.12/site-packages/gpaw_data/setups/I.PBE.gz
    compensation charges:
      type: gauss
      rc: 0.37  # [Å]
      lmax: 2
    cutoffs:
      filter: 2.06  # [Å]
      core: 2.90  # [Å]
    projectors
    | kind |    occ | energy [eV] | rcut [Å] |
    |------|--------|-------------|----------|
    |   5s |  2.000 |     -17.382 |    1.164 |
    |   5p |  5.000 |      -7.088 |    1.164 |
    |    s |        |       9.829 |    1.164 |
    |    p |        |      20.123 |    1.164 |
    |    d |        |       0.000 |    1.164 |
  
    Using partial waves for I as LCAO basis

Reference energy: -960433.156792  # eV

eigensolver:
  Davidson
  Converge bands: occupied
  niter=3
  
Density mixing:
  Method: separate
  Backend: msr1
  Linear mixing parameter: 0.05
  old densities: 10
  Width of damping distribution: 1.1
  Damping of long wavelength oscillations: 20
occupation numbers:
  Fermi-Dirac:
    width: 0.2000  # eV
  

<gpaw.new.pw.paw_poisson.SlowPAWPoissonSolver object at 0x7fe39db5eb70>
xc functional:
  name: MGGA_X_R2SCAN+MGGA_C_R2SCAN with 2 nearest neighbor stencil

Initialization done in: 5.124 s

convergence criteria:
- Maximum integral of absolute [dens]ity change: 0.01 electrons / valence electron
- Maximum integral of absolute [eigenst]ate change: 1e-05 eV^2 / valence electron
- Maximum [total energy] change in last 3 cyles: 0.001 eV / valence electron
maximum number of iterations: 500

SCF iterations
|iter     |     time |      energy | eigst |  dens |
|---------|----------|-------------|-------|-------|
|iter:   1| 01:25:02 |  -99.295950 | -1.19 |       |
|iter:   2| 01:25:09 |  -91.858545 | -1.79 | -1.38 |
|iter:   3| 01:25:18 |  -92.363845 | -1.58 | -1.34 |
|iter:   4| 01:25:26 |  -92.396758 | -2.35 | -1.43 |
|iter:   5| 01:25:34 |  -92.592192 | -1.90 | -1.63 |
|iter:   6| 01:25:42 |  -92.727792 | -2.13 | -1.96 |
|iter:   7| 01:25:51 |  -92.946800 | -1.64 | -2.26c|
|iter:   8| 01:25:59 |  -93.005354 | -2.16 | -2.25c|
|iter:   9| 01:26:07 |  -93.021501 | -2.71 | -2.37c|
|iter:  10| 01:26:16 |  -93.244745 | -1.48 | -2.73c|
|iter:  11| 01:26:24 |  -93.267872 | -2.33 | -2.65c|
|iter:  12| 01:26:32 |  -93.279266c| -3.09 | -2.57c|
|iter:  13| 01:26:39 |  -93.640962 | -1.44 | -2.65c|
|iter:  14| 01:26:47 |  -93.266639 | -1.88 | -2.51c|
|iter:  15| 01:26:55 |  -93.542725 | -1.96 | -2.45c|
|iter:  16| 01:27:04 |  -93.247711 | -1.90 | -2.41c|
|iter:  17| 01:27:12 |  -93.300765 | -3.15 | -2.45c|
|iter:  18| 01:27:20 |  -93.632301 | -1.66 | -2.56c|
|iter:  19| 01:27:29 |  -93.128926 | -1.37 | -2.45c|
|iter:  20| 01:27:37 |  -93.326741 | -3.04 | -2.45c|
|iter:  21| 01:27:45 |  -93.488401 | -2.28 | -2.59c|
|iter:  22| 01:27:53 |  -93.343131 | -2.68 | -2.53c|
|iter:  23| 01:28:00 |  -93.734983 | -1.57 | -2.51c|
|iter:  24| 01:28:08 |  -93.760280 | -2.34 | -2.41c|
|iter:  25| 01:28:16 |  -93.451308 | -2.21 | -2.30c|
|iter:  26| 01:28:24 |  -94.131457 | -1.27 | -2.44c|
|iter:  27| 01:28:32 |  -94.197039 | -1.98 | -2.36c|
|iter:  28| 01:28:41 |  -93.920951 | -3.01 | -2.28c|
|iter:  29| 01:28:49 |  -94.608335 | -1.70 | -2.10c|
|iter:  30| 01:28:58 |  -93.634612 | -1.56 | -2.03c|
|iter:  31| 01:29:06 |  -93.443044 | -2.08 | -2.21c|
|iter:  32| 01:29:14 |  -93.293742 | -2.14 | -2.36c|
|iter:  33| 01:29:22 |  -92.872117 | -1.79 | -2.41c|
|iter:  34| 01:29:30 |  -92.901168 | -2.68 | -2.56c|
|iter:  35| 01:29:38 |  -92.915177c| -3.61 | -2.60c|
|iter:  36| 01:29:46 |  -93.059490 | -4.23 | -2.62c|
|iter:  37| 01:29:55 |  -92.926639 | -2.58 | -2.82c|
|iter:  38| 01:30:04 |  -92.926529 | -3.63 | -2.65c|
|iter:  39| 01:30:12 |  -92.979937 | -3.88 | -2.70c|
|iter:  40| 01:30:21 |  -93.033821 | -3.77 | -2.78c|
|iter:  41| 01:30:29 |  -93.151112 | -2.34 | -2.80c|
|iter:  42| 01:30:37 |  -93.456907 | -1.44 | -2.92c|
|iter:  43| 01:30:45 |  -93.224914 | -2.23 | -2.77c|
|iter:  44| 01:30:53 |  -93.147788 | -2.52 | -2.69c|
|iter:  45| 01:31:01 |  -93.172889 | -4.08 | -2.68c|
|iter:  46| 01:31:10 |  -93.116326 | -2.94 | -2.78c|
|iter:  47| 01:31:18 |  -93.084750 | -3.23 | -2.76c|
|iter:  48| 01:31:27 |  -93.006150 | -2.68 | -2.79c|
|iter:  49| 01:31:35 |  -93.032243 | -4.36 | -2.68c|
|iter:  50| 01:31:43 |  -93.059050 | -3.64 | -2.81c|
|iter:  51| 01:31:51 |  -92.998563 | -3.04 | -2.86c|
|iter:  52| 01:31:59 |  -93.091543 | -2.53 | -2.71c|
|iter:  53| 01:32:07 |  -93.010914 | -2.94 | -3.03c|
|iter:  54| 01:32:15 |  -93.239057 | -1.61 | -2.95c|
|iter:  55| 01:32:23 |  -93.054390 | -2.11 | -3.05c|
|iter:  56| 01:32:31 |  -93.169702 | -2.48 | -2.97c|
|iter:  57| 01:32:40 |  -93.343882 | -1.91 | -2.91c|
|iter:  58| 01:32:48 |  -93.155339 | -2.11 | -2.79c|
|iter:  59| 01:32:57 |  -93.041309 | -2.33 | -2.62c|
|iter:  60| 01:33:06 |  -93.077838 | -4.15 | -2.69c|
|iter:  61| 01:33:13 |  -93.100523 | -3.77 | -2.83c|
|iter:  62| 01:33:21 |  -93.118799c| -3.65 | -2.86c|
|iter:  63| 01:33:29 |  -93.166487 | -2.96 | -2.83c|
|iter:  64| 01:33:37 |  -93.306659 | -2.11 | -2.84c|
|iter:  65| 01:33:45 |  -93.163263 | -2.32 | -2.80c|
|iter:  66| 01:33:53 |  -93.164270 | -2.93 | -2.72c|
|iter:  67| 01:34:01 |  -93.397118 | -1.75 | -2.70c|
|iter:  68| 01:34:10 |  -93.138481 | -1.83 | -2.76c|
|iter:  69| 01:34:18 |  -93.019974 | -2.29 | -2.64c|
|iter:  70| 01:34:27 |  -92.982719 | -2.68 | -2.62c|
|iter:  71| 01:34:35 |  -93.091867 | -2.50 | -2.66c|
|iter:  72| 01:34:43 |  -93.234942 | -2.00 | -2.93c|
|iter:  73| 01:34:51 |  -93.299392 | -2.30 | -2.86c|
|iter:  74| 01:34:59 |  -93.202232 | -2.83 | -2.73c|
|iter:  75| 01:35:07 |  -93.324999 | -2.29 | -2.62c|
|iter:  76| 01:35:15 |  -93.230795 | -2.88 | -2.69c|
|iter:  77| 01:35:23 |  -93.066353 | -2.19 | -2.61c|
|iter:  78| 01:35:32 |  -93.263050 | -1.77 | -2.67c|
|iter:  79| 01:35:41 |  -93.343344 | -2.24 | -2.96c|
|iter:  80| 01:35:49 |  -93.346170 | -2.97 | -2.88c|
|iter:  81| 01:35:57 |  -93.322514c| -5.18c| -2.80c|

Converged in 81 steps
SCF loop duration: 659.499 s (8.142 s/step)
Energy contributions relative to reference atoms: (reference = -960433.156792)

Energy contributions:
  Kinetic:         -18.861056
  Coulomb:          25.761245
  Zero:              0.056171
  External:          0.000000
  Xc:             -100.278273
  Entropy:          -0.001203
  Spinorbit:         0.000000
  ----------------------------
  Free energy:     -93.323116
  Extrapolated:    -93.322514

dipole moment: (-80.670047, -80.670047, -80.670047)  # |e|*Ang


Fermi level: 3.071
Eigenvalues  # (at kpt = [0.000, 0.000, 0.000])
| band index |      eig [eV] | occ [0-2] |
|------------|---------------|-----------|
|          0 |       -19.671 |     2.000 |
|        ... |               |           |
|         14 |        -1.479 |     2.000 |
|         15 |        -1.479 |     2.000 |
|         16 |         0.798 |     2.000 |
|         17 |         0.798 |     2.000 |
|         18 |         0.798 |     2.000 |
|         19 |         0.975 |     2.000 |
|         20 |         0.975 |     2.000 |
|         21 |         0.975 |     2.000 |
|         22 |         5.941 |     0.000 |
|         23 |         6.710 |     0.000 |
|         24 |         6.711 |     0.000 |
|         25 |         8.844 |     0.000 |


Gap: 2.935 eV
Transition (v -> c):
  (s=0, k=19, n=21, [0.50, 0.50, 0.50]) -> (s=0, k=19, n=22, [0.50, 0.50, 0.50])
No difference between direct/indirect transitions
