
  ___ ___ ___ _ _ _  
 |   |   |_  | | | | 
 | | | | | . | | | | 
 |__ |  _|___|_____|  25.7.0
 |___|_|             

User:   luis-ochoa@luis-pc
Date:   Sat May  9 07:31:02 2026
Arch:   x86_64
Pid:    136703
CWD:    /home/luis-ochoa/Documents/Vscode/py/dft
Python: 3.12.3
gpaw:   /home/luis-ochoa/Documents/Vscode/py/dft/.venv/lib/python3.12/site-packages/gpaw
_gpaw:  /home/luis-ochoa/Documents/Vscode/py/dft/.venv/lib/python3.12/site-packages/
        _gpaw.cpython-312-x86_64-linux-gnu.so
ase:    /home/luis-ochoa/Documents/Vscode/py/dft/.venv/lib/python3.12/site-packages/ase (version 3.28.0)
numpy:  /home/luis-ochoa/Documents/Vscode/py/dft/.venv/lib/python3.12/site-packages/numpy (version 2.4.4)
scipy:  /home/luis-ochoa/Documents/Vscode/py/dft/.venv/lib/python3.12/site-packages/scipy (version 1.17.1)
libxc:  5.2.3
units:  Angstrom and eV
cores: 7
OpenMP: False
OMP_NUM_THREADS: 1

Reading from /home/luis-ochoa/Documents/Vscode/py/dft/calculations/top8_pbe/CsSnI3/02_scf/scf.gpw
Read dipole, energy, free_energy, magmom, magmoms
Reading input parameters:
  convergence: {bands: occupied,
                density: 0.0001,
                eigenstates: 4e-08,
                energy: 1e-08}
  kpts: {gamma: True,
         size: [4, 4, 4]}
  mixer: {backend: pulay,
          beta: 0.05,
          method: separate,
          nmaxold: 5,
          weight: 50.0}
  mode: {ecut: 450.00000000000006,
         name: pw}
  symmetry: off
  xc: PBE

Initialize ...

species:
  Cs:
    name: Caesium
    id: fa822afd343f47335d508b9ee4f394c3
    Z: 55.0
    valence: 9
    core: 46
    charge: 0.0
    file: /home/luis-ochoa/.gpaw/gpaw-setups-24.11.0/Cs.PBE.gz
    compensation charges: {type: gauss,
                           rc: 0.33,
                           lmax: 2}
    cutoffs: {filter: 2.06,
              core: 2.51}
    projectors:
      #              energy  rcut
      - 5s(2.00)   -26.706   1.164
      - 6s(1.00)    -2.085   1.164
      - 5p(6.00)   -13.523   1.058
      -  p          13.688   1.058
      -  d           0.000   1.058
  
    # Using partial waves for Cs as LCAO basis

  Sn:
    name: Tin
    id: d1329c6b410f1e0bd923643368775dcd
    Z: 50.0
    valence: 14
    core: 36
    charge: 0.0
    file: /home/luis-ochoa/.gpaw/gpaw-setups-24.11.0/Sn.PBE.gz
    compensation charges: {type: gauss,
                           rc: 0.38,
                           lmax: 2}
    cutoffs: {filter: 2.23,
              core: 2.35}
    projectors:
      #              energy  rcut
      - 5s(2.00)   -10.538   1.201
      - 5p(2.00)    -3.696   1.270
      - 4d(10.00)   -25.845   1.185
      -  s          16.674   1.201
      -  p          23.515   1.270
      -  d           1.367   1.185
  
    # Using partial waves for Sn as LCAO basis

  I:
    name: Iodine
    id: 91405a398e4dfe788ff04f57531604ec
    Z: 53.0
    valence: 7
    core: 46
    charge: 0.0
    file: /home/luis-ochoa/.gpaw/gpaw-setups-24.11.0/I.PBE.gz
    compensation charges: {type: gauss,
                           rc: 0.37,
                           lmax: 2}
    cutoffs: {filter: 2.06,
              core: 2.90}
    projectors:
      #              energy  rcut
      - 5s(2.00)   -17.382   1.164
      - 5p(5.00)    -7.088   1.164
      -  s           9.829   1.164
      -  p          20.123   1.164
      -  d           0.000   1.164
  
    # Using partial waves for I as LCAO basis

Reference energy: -960433.156792  # eV

Spin-paired calculation

Convergence criteria:
 Maximum [total energy] change in last 3 cyles: 1e-08 eV / valence electron
 Maximum integral of absolute [dens]ity change: 0.0001 electrons / valence electron
 Maximum integral of absolute [eigenst]ate change: 4e-08 eV^2 / valence electron
 Maximum number of scf [iter]ations: 333
 (Square brackets indicate name in SCF output, whereas a 'c' in
 the SCF output indicates the quantity has converged.)

Symmetries present (total): 1

  ( 1  0  0)
  ( 0  1  0)
  ( 0  0  1)

64 k-points: 4 x 4 x 4 Monkhorst-Pack grid + [1/8,1/8,1/8]
64 k-points in the irreducible part of the Brillouin zone
       k-points in crystal coordinates                weights
   0:    -0.25000000   -0.25000000   -0.25000000          1/64
   1:    -0.25000000   -0.25000000    0.00000000          1/64
   2:    -0.25000000   -0.25000000    0.25000000          1/64
   3:    -0.25000000   -0.25000000    0.50000000          1/64
   4:    -0.25000000    0.00000000   -0.25000000          1/64
   5:    -0.25000000    0.00000000    0.00000000          1/64
   6:    -0.25000000    0.00000000    0.25000000          1/64
   7:    -0.25000000    0.00000000    0.50000000          1/64
   8:    -0.25000000    0.25000000   -0.25000000          1/64
   9:    -0.25000000    0.25000000    0.00000000          1/64
          ...
  63:     0.50000000    0.50000000    0.50000000          1/64

Wave functions: Plane wave expansion
  Cutoff energy: 450.000 eV
  Number of coefficients (min, max): 5110, 5232
  Pulay-stress correction: 0.000000 eV/Ang^3 (de/decut=0.000000)
  Using Numpy's FFT
  ScaLapack parameters: grid=1x1, blocksize=None
  Wavefunction extrapolation:
    Improved wavefunction reuse through dual PAW basis 

Occupation numbers: Fermi-Dirac:
  width: 0.1000  # eV
 

Eigensolver
   Davidson(niter=2) 

Densities:
  Coarse grid: 32*32*32 grid
  Fine grid: 64*64*64 grid
  Total Charge: 0.000000 

Density mixing:
  Method: separate
  Backend: pulay
  Linear mixing parameter: 0.05
  old densities: 5
  Damping of long wavelength oscillations: 50 

Hamiltonian:
  XC and Coulomb potentials evaluated on a 64*64*64 grid
  Using the PBE Exchange-Correlation functional
  External potential:
    NoExternalPotential
 

XC parameters: PBE with 2 nearest neighbor stencil

Memory estimate:
  Process memory now: 350.89 MiB
  Calculator: 54.07 MiB
    Density: 17.25 MiB
      Arrays: 6.50 MiB
      Localized functions: 8.25 MiB
      Mixer: 2.50 MiB
    Hamiltonian: 4.48 MiB
      Arrays: 4.25 MiB
      XC: 0.00 MiB
      Poisson: 0.00 MiB
      vbar: 0.23 MiB
    Wavefunctions: 32.35 MiB
      Arrays psit_nG: 18.68 MiB
      Eigensolver: 2.58 MiB
      Projections: 0.25 MiB
      Projectors: 8.87 MiB
      PW-descriptor: 1.97 MiB

Total number of cores used: 7
Parallelization over k-points: 7

Number of atoms: 5
Number of atomic orbitals: 26
Number of bands in calculation: 26
Number of valence electrons: 44
Bands to converge: occupied

... initialized

Input parameters:
  kpts: {gamma: True,
         size: [8, 8, 8]}

Initialize ...

species:
  Cs:
    name: Caesium
    id: fa822afd343f47335d508b9ee4f394c3
    Z: 55.0
    valence: 9
    core: 46
    charge: 0.0
    file: /home/luis-ochoa/.gpaw/gpaw-setups-24.11.0/Cs.PBE.gz
    compensation charges: {type: gauss,
                           rc: 0.33,
                           lmax: 2}
    cutoffs: {filter: 2.06,
              core: 2.51}
    projectors:
      #              energy  rcut
      - 5s(2.00)   -26.706   1.164
      - 6s(1.00)    -2.085   1.164
      - 5p(6.00)   -13.523   1.058
      -  p          13.688   1.058
      -  d           0.000   1.058
  
    # Using partial waves for Cs as LCAO basis

  Sn:
    name: Tin
    id: d1329c6b410f1e0bd923643368775dcd
    Z: 50.0
    valence: 14
    core: 36
    charge: 0.0
    file: /home/luis-ochoa/.gpaw/gpaw-setups-24.11.0/Sn.PBE.gz
    compensation charges: {type: gauss,
                           rc: 0.38,
                           lmax: 2}
    cutoffs: {filter: 2.23,
              core: 2.35}
    projectors:
      #              energy  rcut
      - 5s(2.00)   -10.538   1.201
      - 5p(2.00)    -3.696   1.270
      - 4d(10.00)   -25.845   1.185
      -  s          16.674   1.201
      -  p          23.515   1.270
      -  d           1.367   1.185
  
    # Using partial waves for Sn as LCAO basis

  I:
    name: Iodine
    id: 91405a398e4dfe788ff04f57531604ec
    Z: 53.0
    valence: 7
    core: 46
    charge: 0.0
    file: /home/luis-ochoa/.gpaw/gpaw-setups-24.11.0/I.PBE.gz
    compensation charges: {type: gauss,
                           rc: 0.37,
                           lmax: 2}
    cutoffs: {filter: 2.06,
              core: 2.90}
    projectors:
      #              energy  rcut
      - 5s(2.00)   -17.382   1.164
      - 5p(5.00)    -7.088   1.164
      -  s           9.829   1.164
      -  p          20.123   1.164
      -  d           0.000   1.164
  
    # Using partial waves for I as LCAO basis

Reference energy: -960433.156792  # eV

Spin-paired calculation

Convergence criteria:
 Maximum [total energy] change in last 3 cyles: 1e-08 eV / valence electron
 Maximum integral of absolute [dens]ity change: 0.0001 electrons / valence electron
 Maximum integral of absolute [eigenst]ate change: 4e-08 eV^2 / valence electron
 Maximum number of scf [iter]ations: 333
 (Square brackets indicate name in SCF output, whereas a 'c' in
 the SCF output indicates the quantity has converged.)

Symmetries present (total): 1

  ( 1  0  0)
  ( 0  1  0)
  ( 0  0  1)

512 k-points: 8 x 8 x 8 Monkhorst-Pack grid + [1/16,1/16,1/16]
512 k-points in the irreducible part of the Brillouin zone
       k-points in crystal coordinates                weights
   0:    -0.37500000   -0.37500000   -0.37500000          1/512
   1:    -0.37500000   -0.37500000   -0.25000000          1/512
   2:    -0.37500000   -0.37500000   -0.12500000          1/512
   3:    -0.37500000   -0.37500000    0.00000000          1/512
   4:    -0.37500000   -0.37500000    0.12500000          1/512
   5:    -0.37500000   -0.37500000    0.25000000          1/512
   6:    -0.37500000   -0.37500000    0.37500000          1/512
   7:    -0.37500000   -0.37500000    0.50000000          1/512
   8:    -0.37500000   -0.25000000   -0.37500000          1/512
   9:    -0.37500000   -0.25000000   -0.25000000          1/512
          ...
 511:     0.50000000    0.50000000    0.50000000          1/512

Wave functions: Plane wave expansion
  Cutoff energy: 450.000 eV
  Number of coefficients (min, max): 5110, 5232
  Pulay-stress correction: 0.000000 eV/Ang^3 (de/decut=0.000000)
  Using Numpy's FFT
  ScaLapack parameters: grid=1x1, blocksize=None
  Wavefunction extrapolation:
    Improved wavefunction reuse through dual PAW basis 

Occupation numbers: Fermi-Dirac:
  width: 0.1000  # eV
 

Eigensolver
   Davidson(niter=2) 

Density mixing:
  Method: separate
  Backend: pulay
  Linear mixing parameter: 0.05
  old densities: 5
  Damping of long wavelength oscillations: 50 

XC parameters: PBE with 2 nearest neighbor stencil

Memory estimate:
  Process memory now: 350.89 MiB
  Calculator: 256.84 MiB
    Density: 17.25 MiB
      Arrays: 6.50 MiB
      Localized functions: 8.25 MiB
      Mixer: 2.50 MiB
    Hamiltonian: 4.48 MiB
      Arrays: 4.25 MiB
      XC: 0.00 MiB
      Poisson: 0.00 MiB
      vbar: 0.23 MiB
    Wavefunctions: 235.11 MiB
      Arrays psit_nG: 151.52 MiB
      Eigensolver: 2.58 MiB
      Projections: 2.03 MiB
      Projectors: 71.90 MiB
      PW-descriptor: 7.08 MiB

Total number of cores used: 7
Parallelization over k-points: 7

Number of atoms: 5
Number of atomic orbitals: 26
Number of bands in calculation: 26
Number of valence electrons: 44
Bands to converge: occupied

... initialized

Initializing position-dependent things.

Creating initial wave functions:
  26 bands from LCAO basis set

     .--------------.  
    /|              |  
   / |              |  
  /  |              |  
 *   |              |  
 |   |              |  
 |   |    Cs        |  
 |   |              |  
 I   .--------------.  
 |  /              /   
 | I              /    
 |/              /     
 Sn-----I-------*      

Atomic positions and initial magnetic moments

Positions:
   0 Cs     3.100000    3.100000    3.100000    ( 0.0000,  0.0000,  0.0000)
   1 Sn     0.000000    0.000000    0.000000    ( 0.0000,  0.0000,  0.0000)
   2 I      3.100000    0.000000    0.000000    ( 0.0000,  0.0000,  0.0000)
   3 I      0.000000    3.100000    0.000000    ( 0.0000,  0.0000,  0.0000)
   4 I      0.000000    0.000000    3.100000    ( 0.0000,  0.0000,  0.0000)

Unit cell:
           periodic     x           y           z      points  spacing
  1. axis:    yes    6.200000    0.000000    0.000000    32     0.1938
  2. axis:    yes    0.000000    6.200000    0.000000    32     0.1938
  3. axis:    yes    0.000000    0.000000    6.200000    32     0.1938

  Lengths:   6.200000   6.200000   6.200000
  Angles:   90.000000  90.000000  90.000000

Effective grid spacing dv^(1/3) = 0.1938

     iter     time        total  log10-change:
                         energy   eigst   dens
iter:   1 07:31:45   -14.066466
iter:   2 07:32:12   -14.103128   -1.55  -2.37
iter:   3 07:32:40   -14.106233   -2.59  -2.72
iter:   4 07:33:07   -14.106279   -3.64  -2.82
iter:   5 07:33:34   -14.106255   -4.66  -3.00
iter:   6 07:34:01   -14.106227   -5.81  -3.42
iter:   7 07:34:28   -14.106229   -6.05  -3.73
iter:   8 07:34:56   -14.106223   -7.08  -3.77
iter:   9 07:35:23   -14.106223   -7.06  -4.06c
iter:  10 07:35:50   -14.106222   -8.14c -4.32c
iter:  11 07:36:17   -14.106222   -8.31c -4.51c
iter:  12 07:36:44   -14.106222c  -9.03c -5.14c

Converged after 12 iterations.

Dipole moment: (-0.000000, -0.000000, 0.000000) |e|*Ang

Energy contributions relative to reference atoms: (reference = -960433.156792)

Kinetic:        +24.831329
Potential:      -24.805417
External:        +0.000000
XC:             -14.065177
Entropy (-ST):   -0.001849
Local:           -0.066032
SIC:             +0.000000
--------------------------
Free energy:    -14.107147
Extrapolated:   -14.106222

Showing only first 2 kpts
 Kpt  Band  Eigenvalues  Occupancy
  0    20      1.64217    2.00000
  0    21      2.33984    1.99998
  0    22      4.56900    0.00005
  0    23      4.56900    0.00005

  1    20      1.61485    2.00000
  1    21      2.10690    2.00000
  1    22      4.69914    0.00001
  1    23      4.90627    0.00000


Fermi level: 3.51066

No gap
No difference between direct/indirect transitions
Writing to /home/luis-ochoa/Documents/Vscode/py/dft/calculations/top8_pbe/CsSnI3/04_dos/dos.gpw (mode='')

Timing:                              incl.     excl.
-----------------------------------------------------------
Hamiltonian:                         0.177     0.002   0.0% |
 Atomic:                             0.057     0.057   0.0% |
  XC Correction:                     0.000     0.000   0.0% |
 Calculate atomic Hamiltonians:      0.017     0.017   0.0% |
 Communicate:                        0.000     0.000   0.0% |
 Poisson:                            0.002     0.002   0.0% |
 XC 3D grid:                         0.099     0.099   0.0% |
LCAO initialization:                15.495     0.204   0.1% |
 LCAO eigensolver:                   0.188     0.003   0.0% |
  Calculate projections:             0.015     0.015   0.0% |
  DenseAtomicCorrection:             0.030     0.030   0.0% |
  Distribute overlap matrix:         0.002     0.002   0.0% |
  Orbital Layouts:                   0.027     0.027   0.0% |
  Potential matrix:                  0.090     0.090   0.0% |
  Sum over cells:                    0.022     0.022   0.0% |
 LCAO to grid:                      14.417    14.417   4.2% |-|
 Set positions (LCAO WFS):           0.685     0.098   0.0% |
  Basic WFS set positions:           0.000     0.000   0.0% |
  Basis functions set positions:     0.000     0.000   0.0% |
  P tci:                             0.408     0.408   0.1% |
  ST tci:                            0.172     0.172   0.1% |
  mktci:                             0.007     0.007   0.0% |
PWDescriptor:                        0.097     0.097   0.0% |
Redistribute:                        0.000     0.000   0.0% |
SCF-cycle:                         325.273    11.577   3.4% ||
 Davidson:                         286.980    44.090  12.9% |----|
  Apply H:                          45.872    44.756  13.1% |----|
   HMM T:                            1.116     1.116   0.3% |
  Subspace diag:                    59.434     0.102   0.0% |
   calc_h_matrix:                   51.636     5.813   1.7% ||
    Apply H:                        45.823    44.739  13.1% |----|
     HMM T:                          1.084     1.084   0.3% |
   diagonalize:                      0.367     0.367   0.1% |
   rotate_psi:                       7.328     7.328   2.1% ||
  calc. matrices:                  120.741    29.056   8.5% |--|
   Apply H:                         91.685    89.442  26.1% |---------|
    HMM T:                           2.243     2.243   0.7% |
  diagonalize:                       2.182     2.182   0.6% |
  rotate_psi:                       14.660    14.660   4.3% |-|
 Density:                           23.361     0.000   0.0% |
  Atomic density matrices:           0.139     0.139   0.0% |
  Mix:                               0.469     0.469   0.1% |
  Multipole moments:                 0.002     0.002   0.0% |
  Pseudo density:                   22.750    22.750   6.6% |--|
   Symmetrize density:               0.000     0.000   0.0% |
 Hamiltonian:                        2.071     0.017   0.0% |
  Atomic:                            0.634     0.634   0.2% |
   XC Correction:                    0.000     0.000   0.0% |
  Calculate atomic Hamiltonians:     0.237     0.237   0.1% |
  Communicate:                       0.001     0.001   0.0% |
  Poisson:                           0.020     0.020   0.0% |
  XC 3D grid:                        1.162     1.162   0.3% |
 Orthonormalize:                     1.284     0.008   0.0% |
  calc_s_matrix:                     0.251     0.251   0.1% |
  inverse-cholesky:                  0.012     0.012   0.0% |
  projections:                       0.688     0.688   0.2% |
  rotate_psi_s:                      0.324     0.324   0.1% |
Set symmetry:                        0.000     0.000   0.0% |
Other:                               1.214     1.214   0.4% |
-----------------------------------------------------------
Total:                                       342.256 100.0%

Memory usage: 509.02 MiB
Date: Sat May  9 07:36:44 2026
