
  ___ ___ ___ _ _ _  
 |   |   |_  | | | | 
 | | | | | . | | | | 
 |__ |  _|___|_____|  25.7.0
 |___|_|             

User:   luis-ochoa@luis-pc
Date:   Sat May  9 05:57:06 2026
Arch:   x86_64
Pid:    66020
CWD:    /home/luis-ochoa/Documents/Vscode/py/dft
Python: 3.12.3
gpaw:   /home/luis-ochoa/Documents/Vscode/py/dft/.venv/lib/python3.12/site-packages/gpaw
_gpaw:  /home/luis-ochoa/Documents/Vscode/py/dft/.venv/lib/python3.12/site-packages/
        _gpaw.cpython-312-x86_64-linux-gnu.so
ase:    /home/luis-ochoa/Documents/Vscode/py/dft/.venv/lib/python3.12/site-packages/ase (version 3.28.0)
numpy:  /home/luis-ochoa/Documents/Vscode/py/dft/.venv/lib/python3.12/site-packages/numpy (version 2.4.4)
scipy:  /home/luis-ochoa/Documents/Vscode/py/dft/.venv/lib/python3.12/site-packages/scipy (version 1.17.1)
libxc:  5.2.3
units:  Angstrom and eV
cores: 7
OpenMP: False
OMP_NUM_THREADS: 1

Reading from /home/luis-ochoa/Documents/Vscode/py/dft/calculations/top8_pbe/FAPbI3/01_relax/relax.gpw
Read dipole, energy, forces, free_energy, magmom, magmoms
Reading input parameters:
  convergence: {bands: occupied,
                density: 0.0001,
                eigenstates: 4e-08,
                energy: 1e-06,
                forces: 0.02}
  kpts: {gamma: True,
         size: [4, 4, 4]}
  mixer: {backend: pulay,
          beta: 0.05,
          method: separate,
          nmaxold: 5,
          weight: 50.0}
  mode: {ecut: 450.00000000000006,
         name: pw}
  symmetry: off
  xc: PBE

Initialize ...

species:
  Pb:
    name: Lead
    id: 66e73b13d76dc837202bcdb13fee58e6
    Z: 82.0
    valence: 14
    core: 68
    charge: 0.0
    file: /home/luis-ochoa/.gpaw/gpaw-setups-24.11.0/Pb.PBE.gz
    compensation charges: {type: gauss,
                           rc: 0.38,
                           lmax: 2}
    cutoffs: {filter: 2.36,
              core: 2.43}
    projectors:
      #              energy  rcut
      - 6s(2.00)   -11.969   1.259
      - 6p(2.00)    -3.506   1.275
      - 5d(10.00)   -21.211   1.217
      -  s          15.243   1.259
      -  p          23.705   1.275
      -  d           6.001   1.217
  
    # Using partial waves for Pb as LCAO basis

  I:
    name: Iodine
    id: 91405a398e4dfe788ff04f57531604ec
    Z: 53.0
    valence: 7
    core: 46
    charge: 0.0
    file: /home/luis-ochoa/.gpaw/gpaw-setups-24.11.0/I.PBE.gz
    compensation charges: {type: gauss,
                           rc: 0.37,
                           lmax: 2}
    cutoffs: {filter: 2.06,
              core: 2.90}
    projectors:
      #              energy  rcut
      - 5s(2.00)   -17.382   1.164
      - 5p(5.00)    -7.088   1.164
      -  s           9.829   1.164
      -  p          20.123   1.164
      -  d           0.000   1.164
  
    # Using partial waves for I as LCAO basis

  C:
    name: Carbon
    id: 4aa54d4b901d75f77cc0ea3eec22967b
    Z: 6.0
    valence: 4
    core: 2
    charge: 0.0
    file: /home/luis-ochoa/.gpaw/gpaw-setups-24.11.0/C.PBE.gz
    compensation charges: {type: gauss,
                           rc: 0.20,
                           lmax: 2}
    cutoffs: {filter: 1.14,
              core: 1.14}
    projectors:
      #              energy  rcut
      - 2s(2.00)   -13.751   0.635
      - 2p(2.00)    -5.284   0.635
      -  s          13.461   0.635
      -  p          21.927   0.635
      -  d           0.000   0.635
  
    # Using partial waves for C as LCAO basis

  N:
    name: Nitrogen
    id: f7500608b86eaa90eef8b1d9a670dc53
    Z: 7.0
    valence: 5
    core: 2
    charge: 0.0
    file: /home/luis-ochoa/.gpaw/gpaw-setups-24.11.0/N.PBE.gz
    compensation charges: {type: gauss,
                           rc: 0.18,
                           lmax: 2}
    cutoffs: {filter: 1.11,
              core: 0.96}
    projectors:
      #              energy  rcut
      - 2s(2.00)   -18.583   0.603
      - 2p(3.00)    -7.089   0.529
      -  s           8.629   0.603
      -  p          20.123   0.529
      -  d           0.000   0.577
  
    # Using partial waves for N as LCAO basis

  H:
    name: Hydrogen
    id: d65de229564ff8ea4db303e23b6d1ecf
    Z: 1.0
    valence: 1
    core: 0
    charge: 0.0
    file: /home/luis-ochoa/.gpaw/gpaw-setups-24.11.0/H.PBE.gz
    compensation charges: {type: gauss,
                           rc: 0.15,
                           lmax: 2}
    cutoffs: {filter: 0.85,
              core: 0.53}
    projectors:
      #              energy  rcut
      - 1s(1.00)    -6.494   0.476
      -  s          20.717   0.476
      -  p           0.000   0.476
  
    # Using partial waves for H as LCAO basis

Reference energy: -1151950.372298  # eV

Spin-paired calculation

Convergence criteria:
 Maximum [total energy] change in last 3 cyles: 1e-06 eV / valence electron
 Maximum integral of absolute [dens]ity change: 0.0001 electrons / valence electron
 Maximum integral of absolute [eigenst]ate change: 4e-08 eV^2 / valence electron
 Maximum change in the atomic [forces] across last 2 cycles: 0.02 eV/Ang OR
Maximum error relative to the maximum force is below inf
 Maximum number of scf [iter]ations: 333
 (Square brackets indicate name in SCF output, whereas a 'c' in
 the SCF output indicates the quantity has converged.)

Symmetries present (total): 1

  ( 1  0  0)
  ( 0  1  0)
  ( 0  0  1)

64 k-points: 4 x 4 x 4 Monkhorst-Pack grid + [1/8,1/8,1/8]
64 k-points in the irreducible part of the Brillouin zone
       k-points in crystal coordinates                weights
   0:    -0.25000000   -0.25000000   -0.25000000          1/64
   1:    -0.25000000   -0.25000000    0.00000000          1/64
   2:    -0.25000000   -0.25000000    0.25000000          1/64
   3:    -0.25000000   -0.25000000    0.50000000          1/64
   4:    -0.25000000    0.00000000   -0.25000000          1/64
   5:    -0.25000000    0.00000000    0.00000000          1/64
   6:    -0.25000000    0.00000000    0.25000000          1/64
   7:    -0.25000000    0.00000000    0.50000000          1/64
   8:    -0.25000000    0.25000000   -0.25000000          1/64
   9:    -0.25000000    0.25000000    0.00000000          1/64
          ...
  63:     0.50000000    0.50000000    0.50000000          1/64

Wave functions: Plane wave expansion
  Cutoff energy: 450.000 eV
  Number of coefficients (min, max): 5542, 5616
  Pulay-stress correction: 0.000000 eV/Ang^3 (de/decut=0.000000)
  Using Numpy's FFT
  ScaLapack parameters: grid=1x1, blocksize=None
  Wavefunction extrapolation:
    Improved wavefunction reuse through dual PAW basis 

Occupation numbers: Fermi-Dirac:
  width: 0.1000  # eV
 

Eigensolver
   Davidson(niter=2) 

Densities:
  Coarse grid: 32*32*32 grid
  Fine grid: 64*64*64 grid
  Total Charge: 0.000000 

Density mixing:
  Method: separate
  Backend: pulay
  Linear mixing parameter: 0.05
  old densities: 5
  Damping of long wavelength oscillations: 50 

Hamiltonian:
  XC and Coulomb potentials evaluated on a 64*64*64 grid
  Using the PBE Exchange-Correlation functional
  External potential:
    NoExternalPotential
 

XC parameters: PBE with 2 nearest neighbor stencil

Memory estimate:
  Process memory now: 298.40 MiB
  Calculator: 73.12 MiB
    Density: 20.91 MiB
      Arrays: 6.50 MiB
      Localized functions: 11.91 MiB
      Mixer: 2.50 MiB
    Hamiltonian: 4.61 MiB
      Arrays: 4.25 MiB
      XC: 0.00 MiB
      Poisson: 0.00 MiB
      vbar: 0.36 MiB
    Wavefunctions: 47.60 MiB
      Arrays psit_nG: 28.54 MiB
      Eigensolver: 3.81 MiB
      Projections: 0.61 MiB
      Projectors: 12.62 MiB
      PW-descriptor: 2.02 MiB

Total number of cores used: 7
Parallelization over k-points: 7

Number of atoms: 12
Number of atomic orbitals: 38
Number of bands in calculation: 37
Number of valence electrons: 54
Bands to converge: occupied

... initialized

Input parameters:
  convergence: {energy: 1e-08}

Initialize ...

species:
  Pb:
    name: Lead
    id: 66e73b13d76dc837202bcdb13fee58e6
    Z: 82.0
    valence: 14
    core: 68
    charge: 0.0
    file: /home/luis-ochoa/.gpaw/gpaw-setups-24.11.0/Pb.PBE.gz
    compensation charges: {type: gauss,
                           rc: 0.38,
                           lmax: 2}
    cutoffs: {filter: 2.36,
              core: 2.43}
    projectors:
      #              energy  rcut
      - 6s(2.00)   -11.969   1.259
      - 6p(2.00)    -3.506   1.275
      - 5d(10.00)   -21.211   1.217
      -  s          15.243   1.259
      -  p          23.705   1.275
      -  d           6.001   1.217
  
    # Using partial waves for Pb as LCAO basis

  I:
    name: Iodine
    id: 91405a398e4dfe788ff04f57531604ec
    Z: 53.0
    valence: 7
    core: 46
    charge: 0.0
    file: /home/luis-ochoa/.gpaw/gpaw-setups-24.11.0/I.PBE.gz
    compensation charges: {type: gauss,
                           rc: 0.37,
                           lmax: 2}
    cutoffs: {filter: 2.06,
              core: 2.90}
    projectors:
      #              energy  rcut
      - 5s(2.00)   -17.382   1.164
      - 5p(5.00)    -7.088   1.164
      -  s           9.829   1.164
      -  p          20.123   1.164
      -  d           0.000   1.164
  
    # Using partial waves for I as LCAO basis

  C:
    name: Carbon
    id: 4aa54d4b901d75f77cc0ea3eec22967b
    Z: 6.0
    valence: 4
    core: 2
    charge: 0.0
    file: /home/luis-ochoa/.gpaw/gpaw-setups-24.11.0/C.PBE.gz
    compensation charges: {type: gauss,
                           rc: 0.20,
                           lmax: 2}
    cutoffs: {filter: 1.14,
              core: 1.14}
    projectors:
      #              energy  rcut
      - 2s(2.00)   -13.751   0.635
      - 2p(2.00)    -5.284   0.635
      -  s          13.461   0.635
      -  p          21.927   0.635
      -  d           0.000   0.635
  
    # Using partial waves for C as LCAO basis

  N:
    name: Nitrogen
    id: f7500608b86eaa90eef8b1d9a670dc53
    Z: 7.0
    valence: 5
    core: 2
    charge: 0.0
    file: /home/luis-ochoa/.gpaw/gpaw-setups-24.11.0/N.PBE.gz
    compensation charges: {type: gauss,
                           rc: 0.18,
                           lmax: 2}
    cutoffs: {filter: 1.11,
              core: 0.96}
    projectors:
      #              energy  rcut
      - 2s(2.00)   -18.583   0.603
      - 2p(3.00)    -7.089   0.529
      -  s           8.629   0.603
      -  p          20.123   0.529
      -  d           0.000   0.577
  
    # Using partial waves for N as LCAO basis

  H:
    name: Hydrogen
    id: d65de229564ff8ea4db303e23b6d1ecf
    Z: 1.0
    valence: 1
    core: 0
    charge: 0.0
    file: /home/luis-ochoa/.gpaw/gpaw-setups-24.11.0/H.PBE.gz
    compensation charges: {type: gauss,
                           rc: 0.15,
                           lmax: 2}
    cutoffs: {filter: 0.85,
              core: 0.53}
    projectors:
      #              energy  rcut
      - 1s(1.00)    -6.494   0.476
      -  s          20.717   0.476
      -  p           0.000   0.476
  
    # Using partial waves for H as LCAO basis

Reference energy: -1151950.372298  # eV

Spin-paired calculation

Convergence criteria:
 Maximum [total energy] change in last 3 cyles: 1e-08 eV / valence electron
 Maximum integral of absolute [dens]ity change: 0.0001 electrons / valence electron
 Maximum integral of absolute [eigenst]ate change: 4e-08 eV^2 / valence electron
 Maximum number of scf [iter]ations: 333
 (Square brackets indicate name in SCF output, whereas a 'c' in
 the SCF output indicates the quantity has converged.)

Occupation numbers: Fermi-Dirac:
  width: 0.1000  # eV
 

Eigensolver
   Davidson(niter=2) 

Density mixing:
  Method: separate
  Backend: pulay
  Linear mixing parameter: 0.05
  old densities: 5
  Damping of long wavelength oscillations: 50 

XC parameters: PBE with 2 nearest neighbor stencil

Memory estimate:
  Process memory now: 298.40 MiB
  Calculator: 73.12 MiB
    Density: 20.91 MiB
      Arrays: 6.50 MiB
      Localized functions: 11.91 MiB
      Mixer: 2.50 MiB
    Hamiltonian: 4.61 MiB
      Arrays: 4.25 MiB
      XC: 0.00 MiB
      Poisson: 0.00 MiB
      vbar: 0.36 MiB
    Wavefunctions: 47.60 MiB
      Arrays psit_nG: 28.54 MiB
      Eigensolver: 3.81 MiB
      Projections: 0.61 MiB
      Projectors: 12.62 MiB
      PW-descriptor: 2.02 MiB

Total number of cores used: 7
Parallelization over k-points: 7

Number of atoms: 12
Number of atomic orbitals: 38
Number of bands in calculation: 37
Number of valence electrons: 54
Bands to converge: occupied

... initialized

Initializing position-dependent things.

Creating initial wave functions:
  37 bands from LCAO basis set

     .---------------Pb 
    /|       I       |  
   I |               |  
  /  |               |  
 *   I     H         |  
 |   | H   C    H    |  
 |   |H N     NH     |  
 |   |               |  
 |   .---------------.  
 |  /               /   
 | /               /    
 |/               /     
 *---------------*      

Atomic positions and initial magnetic moments

Positions:
   0 Pb    -0.000000   -0.000000   -0.205224    ( 0.0000,  0.0000,  0.0000)
   1 I      3.180000   -0.000015   -1.008886    ( 0.0000,  0.0000,  0.0000)
   2 I      0.000000    3.179995   -0.210036    ( 0.0000,  0.0000,  0.0000)
   3 I      0.000000   -0.000012    2.936918    ( 0.0000,  0.0000,  0.0000)
   4 C      3.180000    3.179991    3.728208    ( 0.0000,  0.0000,  0.0000)
   5 N      2.003782    3.179986    3.005229    ( 0.0000,  0.0000,  0.0000)
   6 N      4.356218    3.180018    3.005229    ( 0.0000,  0.0000,  0.0000)
   7 H      3.180000    3.179931    4.833876    ( 0.0000,  0.0000,  0.0000)
   8 H      1.422944    3.979016    3.369537    ( 0.0000,  0.0000,  0.0000)
   9 H      1.422914    2.381047    3.369677    ( 0.0000,  0.0000,  0.0000)
  10 H      4.937073    3.979008    3.369589    ( 0.0000,  0.0000,  0.0000)
  11 H      4.937070    2.381039    3.369625    ( 0.0000,  0.0000,  0.0000)

Unit cell:
           periodic     x           y           z      points  spacing
  1. axis:    yes    6.360000    0.000000    0.000000    32     0.1988
  2. axis:    yes    0.000000    6.360000    0.000000    32     0.1988
  3. axis:    yes    0.000000    0.000000    6.360000    32     0.1988

  Lengths:   6.360000   6.360000   6.360000
  Angles:   90.000000  90.000000  90.000000

Effective grid spacing dv^(1/3) = 0.1988

     iter     time        total  log10-change:
                         energy   eigst   dens
iter:   1 05:57:19   -50.148927   +0.20
iter:   2 05:57:25   -50.268578   -1.17  -2.26
iter:   3 05:57:31   -50.276205   -2.20  -3.05
iter:   4 05:57:37   -50.277055   -3.16  -3.46
iter:   5 05:57:44   -50.277241   -4.33  -3.35
iter:   6 05:57:50   -50.277267   -5.28  -3.50
iter:   7 05:57:56   -50.277247   -6.13  -3.57
iter:   8 05:58:02   -50.277279   -6.02  -3.60
iter:   9 05:58:08   -50.277297   -6.63  -4.11c
iter:  10 05:58:14   -50.277278   -6.51  -3.93
iter:  11 05:58:20   -50.277282   -7.54c -4.51c
iter:  12 05:58:26   -50.277283   -8.22c -4.40c
iter:  13 05:58:32   -50.277283   -7.90c -4.75c
iter:  14 05:58:38   -50.277284   -9.34c -5.02c
iter:  15 05:58:45   -50.277283   -9.76c -5.10c
iter:  16 05:58:51   -50.277283  -10.40c -5.19c
iter:  17 05:58:57   -50.277282   -9.99c -5.23c
iter:  18 05:59:03   -50.277283   -9.57c -5.31c
iter:  19 05:59:09   -50.277283  -10.82c -5.49c
iter:  20 05:59:15   -50.277283c  -9.86c -5.59c

Converged after 20 iterations.

Dipole moment: (0.000009, 0.001536, 23.192194) |e|*Ang

Energy contributions relative to reference atoms: (reference = -1151950.372298)

Kinetic:        +54.265612
Potential:      -57.348105
External:        +0.000000
XC:             -46.982973
Entropy (-ST):   -0.017663
Local:           -0.202985
SIC:             +0.000000
--------------------------
Free energy:    -50.286115
Extrapolated:   -50.277283

Showing only first 2 kpts
 Kpt  Band  Eigenvalues  Occupancy
  0    25      0.70546    1.99924
  0    26      0.80909    1.99785
  0    27      2.04665    0.00781
  0    28      4.41226    0.00000

  1    25      0.70151    1.99927
  1    26      0.86765    1.99614
  1    27      2.04143    0.00822
  1    28      4.66792    0.00000


Fermi level: 1.49244

Gap: 0.460 eV
Transition (v -> c):
  (s=0, k=63, n=26, [0.50, 0.50, 0.50]) -> (s=0, k=31, n=27, [0.00, 0.50, 0.50])
Direct/indirect transitions are different
Direct gap: 0.538 eV
Transition at: (s=0, k=31, n=26, [0.00, 0.50, 0.50])
Writing to /home/luis-ochoa/Documents/Vscode/py/dft/calculations/top8_pbe/FAPbI3/02_scf/scf.gpw (mode='all')

Timing:                              incl.     excl.
-----------------------------------------------------------
Hamiltonian:                         0.266     0.002   0.0% |
 Atomic:                             0.102     0.045   0.0% |
  XC Correction:                     0.057     0.057   0.0% |
 Calculate atomic Hamiltonians:      0.063     0.063   0.0% |
 Communicate:                        0.000     0.000   0.0% |
 Poisson:                            0.002     0.002   0.0% |
 XC 3D grid:                         0.098     0.098   0.1% |
LCAO initialization:                 4.619     0.331   0.3% |
 LCAO eigensolver:                   0.218     0.001   0.0% |
  Calculate projections:             0.004     0.004   0.0% |
  DenseAtomicCorrection:             0.009     0.009   0.0% |
  Distribute overlap matrix:         0.000     0.000   0.0% |
  Orbital Layouts:                   0.007     0.007   0.0% |
  Potential matrix:                  0.192     0.192   0.1% |
  Sum over cells:                    0.005     0.005   0.0% |
 LCAO to grid:                       3.580     3.580   2.8% ||
 Set positions (LCAO WFS):           0.490     0.079   0.1% |
  Basic WFS set positions:           0.001     0.001   0.0% |
  Basis functions set positions:     0.000     0.000   0.0% |
  P tci:                             0.212     0.212   0.2% |
  ST tci:                            0.180     0.180   0.1% |
  mktci:                             0.018     0.018   0.0% |
PWDescriptor:                        0.026     0.026   0.0% |
Redistribute:                        0.003     0.003   0.0% |
SCF-cycle:                         122.904    10.566   8.2% |--|
 Davidson:                          97.889    19.556  15.2% |-----|
  Apply H:                          13.562    13.256  10.3% |---|
   HMM T:                            0.306     0.306   0.2% |
  Subspace diag:                    19.102     0.022   0.0% |
   calc_h_matrix:                   15.967     2.403   1.9% ||
    Apply H:                        13.564    13.257  10.3% |---|
     HMM T:                          0.307     0.307   0.2% |
   diagonalize:                      0.110     0.110   0.1% |
   rotate_psi:                       3.003     3.003   2.3% ||
  calc. matrices:                   38.810    11.806   9.1% |---|
   Apply H:                         27.004    26.409  20.5% |-------|
    HMM T:                           0.595     0.595   0.5% |
  diagonalize:                       0.966     0.966   0.7% |
  rotate_psi:                        5.893     5.893   4.6% |-|
 Density:                            8.884     0.000   0.0% |
  Atomic density matrices:           0.094     0.094   0.1% |
  Mix:                               1.588     1.588   1.2% |
  Multipole moments:                 0.006     0.006   0.0% |
  Pseudo density:                    7.195     7.194   5.6% |-|
   Symmetrize density:               0.000     0.000   0.0% |
 Hamiltonian:                        5.220     0.029   0.0% |
  Atomic:                            1.848     0.758   0.6% |
   XC Correction:                    1.091     1.091   0.8% |
  Calculate atomic Hamiltonians:     1.250     1.250   1.0% |
  Communicate:                       0.001     0.001   0.0% |
  Poisson:                           0.031     0.031   0.0% |
  XC 3D grid:                        2.062     2.062   1.6% ||
 Orthonormalize:                     0.345     0.001   0.0% |
  calc_s_matrix:                     0.062     0.062   0.0% |
  inverse-cholesky:                  0.002     0.002   0.0% |
  projections:                       0.203     0.203   0.2% |
  rotate_psi_s:                      0.077     0.077   0.1% |
Set symmetry:                        0.000     0.000   0.0% |
Other:                               1.244     1.244   1.0% |
-----------------------------------------------------------
Total:                                       129.062 100.0%

Memory usage: 390.91 MiB
Date: Sat May  9 05:59:15 2026
