
  ___ ___ ___ _ _ _  
 |   |   |_  | | | | 
 | | | | | . | | | | 
 |__ |  _|___|_____|  25.7.0
 |___|_|             

User:   luis-ochoa@luis-pc
Date:   Sat May  9 08:33:34 2026
Arch:   x86_64
Pid:    144729
CWD:    /home/luis-ochoa/Documents/Vscode/py/dft
Python: 3.12.3
gpaw:   /home/luis-ochoa/Documents/Vscode/py/dft/.venv/lib/python3.12/site-packages/gpaw
_gpaw:  /home/luis-ochoa/Documents/Vscode/py/dft/.venv/lib/python3.12/site-packages/
        _gpaw.cpython-312-x86_64-linux-gnu.so
ase:    /home/luis-ochoa/Documents/Vscode/py/dft/.venv/lib/python3.12/site-packages/ase (version 3.28.0)
numpy:  /home/luis-ochoa/Documents/Vscode/py/dft/.venv/lib/python3.12/site-packages/numpy (version 2.4.4)
scipy:  /home/luis-ochoa/Documents/Vscode/py/dft/.venv/lib/python3.12/site-packages/scipy (version 1.17.1)
libxc:  5.2.3
units:  Angstrom and eV
cores: 7
OpenMP: False
OMP_NUM_THREADS: 1

Reading from /home/luis-ochoa/Documents/Vscode/py/dft/calculations/top8_pbe/FAPbBr3/02_scf/scf.gpw
Read dipole, energy, free_energy, magmom, magmoms
Reading input parameters:
  convergence: {bands: occupied,
                density: 0.0001,
                eigenstates: 4e-08,
                energy: 1e-08}
  kpts: {gamma: True,
         size: [4, 4, 4]}
  mixer: {backend: pulay,
          beta: 0.05,
          method: separate,
          nmaxold: 5,
          weight: 50.0}
  mode: {ecut: 450.00000000000006,
         name: pw}
  symmetry: off
  xc: PBE

Initialize ...

species:
  Pb:
    name: Lead
    id: 66e73b13d76dc837202bcdb13fee58e6
    Z: 82.0
    valence: 14
    core: 68
    charge: 0.0
    file: /home/luis-ochoa/.gpaw/gpaw-setups-24.11.0/Pb.PBE.gz
    compensation charges: {type: gauss,
                           rc: 0.38,
                           lmax: 2}
    cutoffs: {filter: 2.36,
              core: 2.43}
    projectors:
      #              energy  rcut
      - 6s(2.00)   -11.969   1.259
      - 6p(2.00)    -3.506   1.275
      - 5d(10.00)   -21.211   1.217
      -  s          15.243   1.259
      -  p          23.705   1.275
      -  d           6.001   1.217
  
    # Using partial waves for Pb as LCAO basis

  Br:
    name: Bromine
    id: 39dc90fcf3bf77f2d83386b416c2c495
    Z: 35.0
    valence: 7
    core: 28
    charge: 0.0
    file: /home/luis-ochoa/.gpaw/gpaw-setups-24.11.0/Br.PBE.gz
    compensation charges: {type: gauss,
                           rc: 0.35,
                           lmax: 2}
    cutoffs: {filter: 1.98,
              core: 2.38}
    projectors:
      #              energy  rcut
      - 4s(2.00)   -20.121   1.111
      - 4p(5.00)    -7.861   1.111
      -  s           7.091   1.111
      -  p          19.351   1.111
      -  d           0.000   1.111
  
    # Using partial waves for Br as LCAO basis

  C:
    name: Carbon
    id: 4aa54d4b901d75f77cc0ea3eec22967b
    Z: 6.0
    valence: 4
    core: 2
    charge: 0.0
    file: /home/luis-ochoa/.gpaw/gpaw-setups-24.11.0/C.PBE.gz
    compensation charges: {type: gauss,
                           rc: 0.20,
                           lmax: 2}
    cutoffs: {filter: 1.14,
              core: 1.14}
    projectors:
      #              energy  rcut
      - 2s(2.00)   -13.751   0.635
      - 2p(2.00)    -5.284   0.635
      -  s          13.461   0.635
      -  p          21.927   0.635
      -  d           0.000   0.635
  
    # Using partial waves for C as LCAO basis

  N:
    name: Nitrogen
    id: f7500608b86eaa90eef8b1d9a670dc53
    Z: 7.0
    valence: 5
    core: 2
    charge: 0.0
    file: /home/luis-ochoa/.gpaw/gpaw-setups-24.11.0/N.PBE.gz
    compensation charges: {type: gauss,
                           rc: 0.18,
                           lmax: 2}
    cutoffs: {filter: 1.11,
              core: 0.96}
    projectors:
      #              energy  rcut
      - 2s(2.00)   -18.583   0.603
      - 2p(3.00)    -7.089   0.529
      -  s           8.629   0.603
      -  p          20.123   0.529
      -  d           0.000   0.577
  
    # Using partial waves for N as LCAO basis

  H:
    name: Hydrogen
    id: d65de229564ff8ea4db303e23b6d1ecf
    Z: 1.0
    valence: 1
    core: 0
    charge: 0.0
    file: /home/luis-ochoa/.gpaw/gpaw-setups-24.11.0/H.PBE.gz
    compensation charges: {type: gauss,
                           rc: 0.15,
                           lmax: 2}
    cutoffs: {filter: 0.85,
              core: 0.53}
    projectors:
      #              energy  rcut
      - 1s(1.00)    -6.494   0.476
      -  s          20.717   0.476
      -  p           0.000   0.476
  
    # Using partial waves for H as LCAO basis

Reference energy: -784034.728487  # eV

Spin-paired calculation

Convergence criteria:
 Maximum [total energy] change in last 3 cyles: 1e-08 eV / valence electron
 Maximum integral of absolute [dens]ity change: 0.0001 electrons / valence electron
 Maximum integral of absolute [eigenst]ate change: 4e-08 eV^2 / valence electron
 Maximum number of scf [iter]ations: 333
 (Square brackets indicate name in SCF output, whereas a 'c' in
 the SCF output indicates the quantity has converged.)

Symmetries present (total): 1

  ( 1  0  0)
  ( 0  1  0)
  ( 0  0  1)

64 k-points: 4 x 4 x 4 Monkhorst-Pack grid + [1/8,1/8,1/8]
64 k-points in the irreducible part of the Brillouin zone
       k-points in crystal coordinates                weights
   0:    -0.25000000   -0.25000000   -0.25000000          1/64
   1:    -0.25000000   -0.25000000    0.00000000          1/64
   2:    -0.25000000   -0.25000000    0.25000000          1/64
   3:    -0.25000000   -0.25000000    0.50000000          1/64
   4:    -0.25000000    0.00000000   -0.25000000          1/64
   5:    -0.25000000    0.00000000    0.00000000          1/64
   6:    -0.25000000    0.00000000    0.25000000          1/64
   7:    -0.25000000    0.00000000    0.50000000          1/64
   8:    -0.25000000    0.25000000   -0.25000000          1/64
   9:    -0.25000000    0.25000000    0.00000000          1/64
          ...
  63:     0.50000000    0.50000000    0.50000000          1/64

Wave functions: Plane wave expansion
  Cutoff energy: 450.000 eV
  Number of coefficients (min, max): 4630, 4700
  Pulay-stress correction: 0.000000 eV/Ang^3 (de/decut=0.000000)
  Using Numpy's FFT
  ScaLapack parameters: grid=1x1, blocksize=None
  Wavefunction extrapolation:
    Improved wavefunction reuse through dual PAW basis 

Occupation numbers: Fermi-Dirac:
  width: 0.1000  # eV
 

Eigensolver
   Davidson(niter=2) 

Densities:
  Coarse grid: 30*30*30 grid
  Fine grid: 60*60*60 grid
  Total Charge: 0.000000 

Density mixing:
  Method: separate
  Backend: pulay
  Linear mixing parameter: 0.05
  old densities: 5
  Damping of long wavelength oscillations: 50 

Hamiltonian:
  XC and Coulomb potentials evaluated on a 60*60*60 grid
  Using the PBE Exchange-Correlation functional
  External potential:
    NoExternalPotential
 

XC parameters: PBE with 2 nearest neighbor stencil

Memory estimate:
  Process memory now: 356.70 MiB
  Calculator: 61.16 MiB
    Density: 17.39 MiB
      Arrays: 5.36 MiB
      Localized functions: 9.97 MiB
      Mixer: 2.06 MiB
    Hamiltonian: 3.80 MiB
      Arrays: 3.50 MiB
      XC: 0.00 MiB
      Poisson: 0.00 MiB
      vbar: 0.30 MiB
    Wavefunctions: 39.97 MiB
      Arrays psit_nG: 23.88 MiB
      Eigensolver: 3.22 MiB
      Projections: 0.61 MiB
      Projectors: 10.57 MiB
      PW-descriptor: 1.68 MiB

Total number of cores used: 7
Parallelization over k-points: 7

Number of atoms: 12
Number of atomic orbitals: 38
Number of bands in calculation: 37
Number of valence electrons: 54
Bands to converge: occupied

... initialized

Input parameters:
  convergence: {bands: -12}
  fixdensity: True
  kpts: {cell: Cell([5.989999999999999, 5.989999999999999, 5.989999999999999]),
         kpts: [[0.         0.         0.        ]
 [0.         0.02941176 0.        ]
 [0.         0.05882353 0.        ]
 ...
 [0.04       0.04       0.        ]
 [0.02       0.02       0.        ]
 [0.         0.         0.        ]],
         labelseq: GXMG,
         special_points: {'G': array([0., 0., 0.]), 'M': array([0.5, 0.5, 0. ]), 'R': array([0.5, 0.5, 0.5]), 'X': array([0. , 0.5, 0. ])}}

Initialize ...

species:
  Pb:
    name: Lead
    id: 66e73b13d76dc837202bcdb13fee58e6
    Z: 82.0
    valence: 14
    core: 68
    charge: 0.0
    file: /home/luis-ochoa/.gpaw/gpaw-setups-24.11.0/Pb.PBE.gz
    compensation charges: {type: gauss,
                           rc: 0.38,
                           lmax: 2}
    cutoffs: {filter: 2.36,
              core: 2.43}
    projectors:
      #              energy  rcut
      - 6s(2.00)   -11.969   1.259
      - 6p(2.00)    -3.506   1.275
      - 5d(10.00)   -21.211   1.217
      -  s          15.243   1.259
      -  p          23.705   1.275
      -  d           6.001   1.217
  
    # Using partial waves for Pb as LCAO basis

  Br:
    name: Bromine
    id: 39dc90fcf3bf77f2d83386b416c2c495
    Z: 35.0
    valence: 7
    core: 28
    charge: 0.0
    file: /home/luis-ochoa/.gpaw/gpaw-setups-24.11.0/Br.PBE.gz
    compensation charges: {type: gauss,
                           rc: 0.35,
                           lmax: 2}
    cutoffs: {filter: 1.98,
              core: 2.38}
    projectors:
      #              energy  rcut
      - 4s(2.00)   -20.121   1.111
      - 4p(5.00)    -7.861   1.111
      -  s           7.091   1.111
      -  p          19.351   1.111
      -  d           0.000   1.111
  
    # Using partial waves for Br as LCAO basis

  C:
    name: Carbon
    id: 4aa54d4b901d75f77cc0ea3eec22967b
    Z: 6.0
    valence: 4
    core: 2
    charge: 0.0
    file: /home/luis-ochoa/.gpaw/gpaw-setups-24.11.0/C.PBE.gz
    compensation charges: {type: gauss,
                           rc: 0.20,
                           lmax: 2}
    cutoffs: {filter: 1.14,
              core: 1.14}
    projectors:
      #              energy  rcut
      - 2s(2.00)   -13.751   0.635
      - 2p(2.00)    -5.284   0.635
      -  s          13.461   0.635
      -  p          21.927   0.635
      -  d           0.000   0.635
  
    # Using partial waves for C as LCAO basis

  N:
    name: Nitrogen
    id: f7500608b86eaa90eef8b1d9a670dc53
    Z: 7.0
    valence: 5
    core: 2
    charge: 0.0
    file: /home/luis-ochoa/.gpaw/gpaw-setups-24.11.0/N.PBE.gz
    compensation charges: {type: gauss,
                           rc: 0.18,
                           lmax: 2}
    cutoffs: {filter: 1.11,
              core: 0.96}
    projectors:
      #              energy  rcut
      - 2s(2.00)   -18.583   0.603
      - 2p(3.00)    -7.089   0.529
      -  s           8.629   0.603
      -  p          20.123   0.529
      -  d           0.000   0.577
  
    # Using partial waves for N as LCAO basis

  H:
    name: Hydrogen
    id: d65de229564ff8ea4db303e23b6d1ecf
    Z: 1.0
    valence: 1
    core: 0
    charge: 0.0
    file: /home/luis-ochoa/.gpaw/gpaw-setups-24.11.0/H.PBE.gz
    compensation charges: {type: gauss,
                           rc: 0.15,
                           lmax: 2}
    cutoffs: {filter: 0.85,
              core: 0.53}
    projectors:
      #              energy  rcut
      - 1s(1.00)    -6.494   0.476
      -  s          20.717   0.476
      -  p           0.000   0.476
  
    # Using partial waves for H as LCAO basis

Reference energy: -784034.728487  # eV

Spin-paired calculation

Convergence criteria:
 Maximum [total energy] change in last 3 cyles: 0.0005 eV / valence electron
 Maximum integral of absolute [dens]ity change: 0.0001 electrons / valence electron
 Maximum integral of absolute [eigenst]ate change: 4e-08 eV^2 / valence electron
 Maximum number of scf [iter]ations: 333
 (Square brackets indicate name in SCF output, whereas a 'c' in
 the SCF output indicates the quantity has converged.)

Symmetries present (total): 1

  ( 1  0  0)
  ( 0  1  0)
  ( 0  0  1)

60 k-points
60 k-points in the irreducible part of the Brillouin zone
       k-points in crystal coordinates                weights
   0:     0.00000000    0.00000000    0.00000000       0.01666667
   1:     0.00000000    0.02941176    0.00000000       0.01666667
   2:     0.00000000    0.05882353    0.00000000       0.01666667
   3:     0.00000000    0.08823529    0.00000000       0.01666667
   4:     0.00000000    0.11764706    0.00000000       0.01666667
   5:     0.00000000    0.14705882    0.00000000       0.01666667
   6:     0.00000000    0.17647059    0.00000000       0.01666667
   7:     0.00000000    0.20588235    0.00000000       0.01666667
   8:     0.00000000    0.23529412    0.00000000       0.01666667
   9:     0.00000000    0.26470588    0.00000000       0.01666667
          ...
  59:     0.00000000    0.00000000    0.00000000       0.01666667

Wave functions: Plane wave expansion
  Cutoff energy: 450.000 eV
  Number of coefficients (min, max): 4636, 4700
  Pulay-stress correction: 0.000000 eV/Ang^3 (de/decut=0.000000)
  Using Numpy's FFT
  ScaLapack parameters: grid=1x1, blocksize=None
  Wavefunction extrapolation:
    Improved wavefunction reuse through dual PAW basis 

Occupation numbers: Fermi-Dirac:
  width: 0.1000  # eV
 

Eigensolver
   Davidson(niter=2) 

No density mixing

XC parameters: PBE with 2 nearest neighbor stencil

Memory estimate:
  Process memory now: 356.70 MiB
  Calculator: 57.21 MiB
    Density: 17.39 MiB
      Arrays: 5.36 MiB
      Localized functions: 9.97 MiB
      Mixer: 2.06 MiB
    Hamiltonian: 3.80 MiB
      Arrays: 3.50 MiB
      XC: 0.00 MiB
      Poisson: 0.00 MiB
      vbar: 0.30 MiB
    Wavefunctions: 36.02 MiB
      Arrays psit_nG: 21.23 MiB
      Eigensolver: 3.22 MiB
      Projections: 0.55 MiB
      Projectors: 9.42 MiB
      PW-descriptor: 1.60 MiB

Total number of cores used: 7
Parallelization over k-points: 7

Number of atoms: 12
Number of atomic orbitals: 38
Number of bands in calculation: 37
Number of valence electrons: 54
Bands to converge: 25

... initialized

Initializing position-dependent things.

Creating initial wave functions:
  37 bands from LCAO basis set

     .--------------Pb 
    /|      Br      |  
   / |            Br|  
  /  |              |  
 *   |    H         Br 
 |   | H  C    H    |  
 |   |H N    NH     |  
 |   .--------------.  
 |  /              /   
 | /              /    
 |/              /     
 *--------------*      

Atomic positions and initial magnetic moments

Positions:
   0 Pb    -0.000000   -0.000000   -0.143315    ( 0.0000,  0.0000,  0.0000)
   1 Br     2.995000   -0.000011   -0.917154    ( 0.0000,  0.0000,  0.0000)
   2 Br    -0.000000    2.994995   -0.283192    ( 0.0000,  0.0000,  0.0000)
   3 Br    -0.000000   -0.000012    2.851718    ( 0.0000,  0.0000,  0.0000)
   4 C      2.995000    2.994990    3.497377    ( 0.0000,  0.0000,  0.0000)
   5 N      1.825624    2.995039    2.777655    ( 0.0000,  0.0000,  0.0000)
   6 N      4.164375    2.994964    2.777655    ( 0.0000,  0.0000,  0.0000)
   7 H      2.995000    2.994941    4.603287    ( 0.0000,  0.0000,  0.0000)
   8 H      1.251474    3.791775    3.162365    ( 0.0000,  0.0000,  0.0000)
   9 H      1.251501    2.198248    3.162315    ( 0.0000,  0.0000,  0.0000)
  10 H      4.738487    3.791798    3.162244    ( 0.0000,  0.0000,  0.0000)
  11 H      4.738537    2.198271    3.162436    ( 0.0000,  0.0000,  0.0000)

Unit cell:
           periodic     x           y           z      points  spacing
  1. axis:    yes    5.990000    0.000000    0.000000    30     0.1997
  2. axis:    yes    0.000000    5.990000    0.000000    30     0.1997
  3. axis:    yes    0.000000    0.000000    5.990000    30     0.1997

  Lengths:   5.990000   5.990000   5.990000
  Angles:   90.000000  90.000000  90.000000

Effective grid spacing dv^(1/3) = 0.1997

     iter     time        total  log10-change:
                         energy   eigst   dens
iter:   1 08:33:43   -52.851158   +0.18       c
iter:   2 08:33:48   -52.967631   -1.23       c
iter:   3 08:33:52   -52.975119   -2.31       c
iter:   4 08:33:56   -52.975877c  -3.33       c
iter:   5 08:34:00   -52.975965c  -4.28       c
iter:   6 08:34:04   -52.975976c  -5.15       c
iter:   7 08:34:09   -52.975978c  -5.98       c
iter:   8 08:34:13   -52.975978c  -6.74       c
iter:   9 08:34:17   -52.975978c  -7.45c      c

Converged after 9 iterations.

Dipole moment: (0.000014, 0.001057, 18.746956) |e|*Ang

Energy contributions relative to reference atoms: (reference = -784034.728487)

Kinetic:        +55.426204
Potential:      -59.435636
External:        +0.000000
XC:             -48.701964
Entropy (-ST):   -0.007647
Local:           -0.260758
SIC:             +0.000000
--------------------------
Free energy:    -52.979802
Extrapolated:   -52.975978

Showing only first 2 kpts
 Kpt  Band  Eigenvalues  Occupancy
  0    25     -0.02521    1.99996
  0    26      0.27942    1.99920
  0    27      2.05442    0.00010
  0    28      5.51353    0.00000

  1    25     -0.02638    1.99996
  1    26      0.28116    1.99919
  1    27      2.05003    0.00010
  1    28      5.52111    0.00000


Fermi level: 1.06195

Gap: 0.794 eV
Transition (v -> c):
  (s=0, k=34, n=26, [0.50, 0.50, 0.00]) -> (s=0, k=17, n=27, [0.00, 0.50, 0.00])
Direct/indirect transitions are different
Direct gap: 1.095 eV
Transition at: (s=0, k=34, n=26, [0.50, 0.50, 0.00])
Writing to /home/luis-ochoa/Documents/Vscode/py/dft/calculations/top8_pbe/FAPbBr3/03_bands/bands.gpw (mode='')

Timing:                              incl.     excl.
-----------------------------------------------------------
Hamiltonian:                         0.217     0.001   0.0% |
 Atomic:                             0.086     0.030   0.1% |
  XC Correction:                     0.056     0.056   0.1% |
 Calculate atomic Hamiltonians:      0.049     0.049   0.1% |
 Communicate:                        0.000     0.000   0.0% |
 Poisson:                            0.001     0.001   0.0% |
 XC 3D grid:                         0.078     0.078   0.2% |
LCAO initialization:                 3.764     0.331   0.8% |
 LCAO eigensolver:                   0.248     0.000   0.0% |
  Calculate projections:             0.003     0.003   0.0% |
  DenseAtomicCorrection:             0.008     0.008   0.0% |
  Distribute overlap matrix:         0.000     0.000   0.0% |
  Orbital Layouts:                   0.005     0.005   0.0% |
  Potential matrix:                  0.228     0.228   0.5% |
  Sum over cells:                    0.003     0.003   0.0% |
 LCAO to grid:                       2.695     2.695   6.2% |-|
 Set positions (LCAO WFS):           0.489     0.085   0.2% |
  Basic WFS set positions:           0.001     0.001   0.0% |
  Basis functions set positions:     0.000     0.000   0.0% |
  P tci:                             0.199     0.199   0.5% |
  ST tci:                            0.186     0.186   0.4% |
  mktci:                             0.018     0.018   0.0% |
PWDescriptor:                        0.021     0.021   0.0% |
Redistribute:                        0.000     0.000   0.0% |
SCF-cycle:                          38.453     6.165  14.2% |-----|
 Davidson:                          32.033     6.520  15.0% |-----|
  Apply H:                           4.352     4.252   9.8% |---|
   HMM T:                            0.100     0.100   0.2% |
  Subspace diag:                     6.186     0.009   0.0% |
   calc_h_matrix:                    5.144     0.799   1.8% ||
    Apply H:                         4.344     4.245   9.8% |---|
     HMM T:                          0.099     0.099   0.2% |
   diagonalize:                      0.041     0.041   0.1% |
   rotate_psi:                       0.993     0.993   2.3% ||
  calc. matrices:                   12.634     3.972   9.2% |---|
   Apply H:                          8.662     8.465  19.5% |-------|
    HMM T:                           0.196     0.196   0.5% |
  diagonalize:                       0.382     0.382   0.9% |
  rotate_psi:                        1.960     1.960   4.5% |-|
 Orthonormalize:                     0.254     0.001   0.0% |
  calc_s_matrix:                     0.047     0.047   0.1% |
  inverse-cholesky:                  0.002     0.002   0.0% |
  projections:                       0.146     0.146   0.3% |
  rotate_psi_s:                      0.058     0.058   0.1% |
Set symmetry:                        0.000     0.000   0.0% |
Other:                               0.931     0.931   2.1% ||
-----------------------------------------------------------
Total:                                        43.385 100.0%

Memory usage: 408.73 MiB
Date: Sat May  9 08:34:17 2026
