
  ___ ___ ___ _ _ _  
 |   |   |_  | | | | 
 | | | | | . | | | | 
 |__ |  _|___|_____|  25.7.0
 |___|_|             

User:   luis-ochoa@luis-pc
Date:   Sun Apr 26 13:23:36 2026
Arch:   x86_64
Pid:    299971
CWD:    /home/luis-ochoa/Documents/Vscode/py/dft-cspbi3-gpaw-main
Python: 3.12.3
gpaw:   /home/luis-ochoa/Documents/Vscode/py/dft-cspbi3-gpaw-main/.venv/lib/python3.12/site-packages/gpaw
_gpaw:  /home/luis-ochoa/Documents/Vscode/py/dft-cspbi3-gpaw-main/.venv/lib/python3.12/site-packages/
        _gpaw.cpython-312-x86_64-linux-gnu.so
ase:    /home/luis-ochoa/Documents/Vscode/py/dft-cspbi3-gpaw-main/.venv/lib/python3.12/site-packages/ase (version 3.28.0)
numpy:  /home/luis-ochoa/Documents/Vscode/py/dft-cspbi3-gpaw-main/.venv/lib/python3.12/site-packages/numpy (version 2.4.4)
scipy:  /home/luis-ochoa/Documents/Vscode/py/dft-cspbi3-gpaw-main/.venv/lib/python3.12/site-packages/scipy (version 1.17.1)
libxc:  5.2.3
units:  Angstrom and eV
cores: 7
OpenMP: False
OMP_NUM_THREADS: 1

Input parameters:
  convergence: {energy: 1e-06}
  kpts: {gamma: True,
         size: [3, 3, 3]}
  mode: {ecut: 450.00000000000006,
         name: pw}
  occupations: {name: fermi-dirac,
                width: 0.05}
  xc: HSE06

System changes: positions, numbers, cell, pbc, initial_charges, initial_magmoms 

Initialize ...

species:
  Cs:
    name: Caesium
    id: fa822afd343f47335d508b9ee4f394c3
    Z: 55.0
    valence: 9
    core: 46
    charge: 0.0
    file: /home/luis-ochoa/Documents/Vscode/py/dft-cspbi3-gpaw-main/.venv/lib/python3.12/site-packages/gpaw_data/setups/Cs.PBE.gz
    compensation charges: {type: gauss,
                           rc: 0.33,
                           lmax: 2}
    cutoffs: {filter: 2.06,
              core: 2.51}
    projectors:
      #              energy  rcut
      - 5s(2.00)   -26.706   1.164
      - 6s(1.00)    -2.085   1.164
      - 5p(6.00)   -13.523   1.058
      -  p          13.688   1.058
      -  d           0.000   1.058
  
    # Using partial waves for Cs as LCAO basis

  Pb:
    name: Lead
    id: 66e73b13d76dc837202bcdb13fee58e6
    Z: 82.0
    valence: 14
    core: 68
    charge: 0.0
    file: /home/luis-ochoa/Documents/Vscode/py/dft-cspbi3-gpaw-main/.venv/lib/python3.12/site-packages/gpaw_data/setups/Pb.PBE.gz
    compensation charges: {type: gauss,
                           rc: 0.38,
                           lmax: 2}
    cutoffs: {filter: 2.36,
              core: 2.43}
    projectors:
      #              energy  rcut
      - 6s(2.00)   -11.969   1.259
      - 6p(2.00)    -3.506   1.275
      - 5d(10.00)   -21.211   1.217
      -  s          15.243   1.259
      -  p          23.705   1.275
      -  d           6.001   1.217
  
    # Using partial waves for Pb as LCAO basis

  I:
    name: Iodine
    id: 91405a398e4dfe788ff04f57531604ec
    Z: 53.0
    valence: 7
    core: 46
    charge: 0.0
    file: /home/luis-ochoa/Documents/Vscode/py/dft-cspbi3-gpaw-main/.venv/lib/python3.12/site-packages/gpaw_data/setups/I.PBE.gz
    compensation charges: {type: gauss,
                           rc: 0.37,
                           lmax: 2}
    cutoffs: {filter: 2.06,
              core: 2.90}
    projectors:
      #              energy  rcut
      - 5s(2.00)   -17.382   1.164
      - 5p(5.00)    -7.088   1.164
      -  s           9.829   1.164
      -  p          20.123   1.164
      -  d           0.000   1.164
  
    # Using partial waves for I as LCAO basis

Reference energy: -1359696.926849  # eV

Spin-paired calculation

Convergence criteria:
 Maximum [total energy] change in last 3 cyles: 1e-06 eV / valence electron
 Maximum integral of absolute [dens]ity change: 0.0001 electrons / valence electron
 Maximum integral of absolute [eigenst]ate change: 4e-08 eV^2 / valence electron
 Maximum number of scf [iter]ations: 333
 (Square brackets indicate name in SCF output, whereas a 'c' in
 the SCF output indicates the quantity has converged.)

Symmetries present (total): 48

  ( 1  0  0)  ( 1  0  0)  ( 1  0  0)  ( 1  0  0)  ( 1  0  0)  ( 1  0  0)
  ( 0  1  0)  ( 0  1  0)  ( 0  0  1)  ( 0  0  1)  ( 0  0 -1)  ( 0  0 -1)
  ( 0  0  1)  ( 0  0 -1)  ( 0  1  0)  ( 0 -1  0)  ( 0  1  0)  ( 0 -1  0)

  ( 1  0  0)  ( 1  0  0)  ( 0  1  0)  ( 0  1  0)  ( 0  1  0)  ( 0  1  0)
  ( 0 -1  0)  ( 0 -1  0)  ( 1  0  0)  ( 1  0  0)  ( 0  0  1)  ( 0  0  1)
  ( 0  0  1)  ( 0  0 -1)  ( 0  0  1)  ( 0  0 -1)  ( 1  0  0)  (-1  0  0)

  ( 0  1  0)  ( 0  1  0)  ( 0  1  0)  ( 0  1  0)  ( 0  0  1)  ( 0  0  1)
  ( 0  0 -1)  ( 0  0 -1)  (-1  0  0)  (-1  0  0)  ( 1  0  0)  ( 1  0  0)
  ( 1  0  0)  (-1  0  0)  ( 0  0  1)  ( 0  0 -1)  ( 0  1  0)  ( 0 -1  0)

  ( 0  0  1)  ( 0  0  1)  ( 0  0  1)  ( 0  0  1)  ( 0  0  1)  ( 0  0  1)
  ( 0  1  0)  ( 0  1  0)  ( 0 -1  0)  ( 0 -1  0)  (-1  0  0)  (-1  0  0)
  ( 1  0  0)  (-1  0  0)  ( 1  0  0)  (-1  0  0)  ( 0  1  0)  ( 0 -1  0)

  ( 0  0 -1)  ( 0  0 -1)  ( 0  0 -1)  ( 0  0 -1)  ( 0  0 -1)  ( 0  0 -1)
  ( 1  0  0)  ( 1  0  0)  ( 0  1  0)  ( 0  1  0)  ( 0 -1  0)  ( 0 -1  0)
  ( 0  1  0)  ( 0 -1  0)  ( 1  0  0)  (-1  0  0)  ( 1  0  0)  (-1  0  0)

  ( 0  0 -1)  ( 0  0 -1)  ( 0 -1  0)  ( 0 -1  0)  ( 0 -1  0)  ( 0 -1  0)
  (-1  0  0)  (-1  0  0)  ( 1  0  0)  ( 1  0  0)  ( 0  0  1)  ( 0  0  1)
  ( 0  1  0)  ( 0 -1  0)  ( 0  0  1)  ( 0  0 -1)  ( 1  0  0)  (-1  0  0)

  ( 0 -1  0)  ( 0 -1  0)  ( 0 -1  0)  ( 0 -1  0)  (-1  0  0)  (-1  0  0)
  ( 0  0 -1)  ( 0  0 -1)  (-1  0  0)  (-1  0  0)  ( 0  1  0)  ( 0  1  0)
  ( 1  0  0)  (-1  0  0)  ( 0  0  1)  ( 0  0 -1)  ( 0  0  1)  ( 0  0 -1)

  (-1  0  0)  (-1  0  0)  (-1  0  0)  (-1  0  0)  (-1  0  0)  (-1  0  0)
  ( 0  0  1)  ( 0  0  1)  ( 0  0 -1)  ( 0  0 -1)  ( 0 -1  0)  ( 0 -1  0)
  ( 0  1  0)  ( 0 -1  0)  ( 0  1  0)  ( 0 -1  0)  ( 0  0  1)  ( 0  0 -1)

27 k-points: 3 x 3 x 3 Monkhorst-Pack grid
4 k-points in the irreducible part of the Brillouin zone
       k-points in crystal coordinates                weights
   0:     0.00000000    0.00000000    0.00000000          1/27
   1:     0.33333333    0.00000000    0.00000000          6/27
   2:     0.33333333    0.33333333    0.00000000         12/27
   3:     0.33333333    0.33333333    0.33333333          8/27

Wave functions: Plane wave expansion
  Cutoff energy: 450.000 eV
  Number of coefficients (min, max): 5082, 5141
  Pulay-stress correction: 0.000000 eV/Ang^3 (de/decut=0.000000)
  Using Numpy's FFT
  ScaLapack parameters: grid=1x1, blocksize=None
  Wavefunction extrapolation:
    Improved wavefunction reuse through dual PAW basis 

Occupation numbers: Fermi-Dirac:
  width: 0.0500  # eV
 

Eigensolver
   Davidson(niter=2) 

Densities:
  Coarse grid: 32*32*32 grid
  Fine grid: 64*64*64 grid
  Total Charge: 0.000000 

Density mixing:
  Method: separate
  Backend: pulay
  Linear mixing parameter: 0.05
  old densities: 5
  Damping of long wavelength oscillations: 50 

Hamiltonian:
  XC and Coulomb potentials evaluated on a 64*64*64 grid
  Using the HSE06 Exchange-Correlation functional
  External potential:
    NoExternalPotential
 

XC parameters: HYB_GGA_XC_HSE06 + 0.25 * EXX(omega = 0.11 bohr^-1)

Memory estimate:
  Process memory now: 151.13 MiB
Attribute error: AttributeError("'HybridXC' object has no attribute 'estimate_memory'")
Some object probably lacks estimate_memory() method
Memory breakdown may be incomplete
  Calculator: 3.24 MiB
    Density: 2.58 MiB
      Arrays: 1.02 MiB
      Localized functions: 1.17 MiB
      Mixer: 0.39 MiB
    Hamiltonian: 0.66 MiB
      Arrays: 0.66 MiB

Total number of cores used: 7
Domain decomposition: 7 x 1 x 1

Number of atoms: 5
Number of atomic orbitals: 26
Number of bands in calculation: 26
Number of valence electrons: 44
Bands to converge: occupied

... initialized

Initializing position-dependent things.

Density initialized from atomic densities
Creating initial wave functions:
  26 bands from LCAO basis set

     .--------------.  
    /|              |  
   / |              |  
  /  |              |  
 *   |              |  
 |   |              |  
 | I |    Pb        |  
 |   |              |  
 |   .--I-----------.  
 |  /              /   
 | /      I       /    
 |/              /     
 Cs-------------*      

Atomic positions and initial magnetic moments

Positions:
   0 Cs     0.000000    0.000000    0.000000    ( 0.0000,  0.0000,  0.0000)
   1 Pb     3.090000    3.090000    3.090000    ( 0.0000,  0.0000,  0.0000)
   2 I      3.090000    0.000000    3.090000    ( 0.0000,  0.0000,  0.0000)
   3 I      0.000000    3.090000    3.090000    ( 0.0000,  0.0000,  0.0000)
   4 I      3.090000    3.090000    0.000000    ( 0.0000,  0.0000,  0.0000)

Unit cell:
           periodic     x           y           z      points  spacing
  1. axis:    yes    6.180000    0.000000    0.000000    32     0.1931
  2. axis:    yes    0.000000    6.180000    0.000000    32     0.1931
  3. axis:    yes    0.000000    0.000000    6.180000    32     0.1931
  Lengths:   6.180000   6.180000   6.180000
  Angles:   90.000000  90.000000  90.000000

Effective grid spacing dv^(1/3) = 0.1931

     iter     time        total  log10-change:
                         energy   eigst   dens
iter:   1 13:23:52
iter:   2 15:27:14                +1.92  -1.29
iter:   3 17:31:34  -123.319350   -0.13  -1.33
iter:   4 19:38:00  -120.938000   -0.48  -1.33
                                                                                                                                              iter:   8 04:10:36  -120.130692   -1.76  -2.02
iter:   9 06:19:58  -120.260424   -1.82  -2.41
iter:  10 08:29:22  -120.286742   -1.85  -2.59
iter:  11 10:38:44  -120.216519   -1.47  -2.70
iter:  12 12:47:48  -120.273594   -1.46  -2.84
iter:  13 14:56:40  -120.241747   -0.82  -2.79
