
  ___ ___ ___ _ _ _  
 |   |   |_  | | | | 
 | | | | | . | | | | 
 |__ |  _|___|_____|  25.7.0
 |___|_|             

User:   luis-ochoa@luis-pc
Date:   Sat May  9 07:39:04 2026
Arch:   x86_64
Pid:    140642
CWD:    /home/luis-ochoa/Documents/Vscode/py/dft
Python: 3.12.3
gpaw:   /home/luis-ochoa/Documents/Vscode/py/dft/.venv/lib/python3.12/site-packages/gpaw
_gpaw:  /home/luis-ochoa/Documents/Vscode/py/dft/.venv/lib/python3.12/site-packages/
        _gpaw.cpython-312-x86_64-linux-gnu.so
ase:    /home/luis-ochoa/Documents/Vscode/py/dft/.venv/lib/python3.12/site-packages/ase (version 3.28.0)
numpy:  /home/luis-ochoa/Documents/Vscode/py/dft/.venv/lib/python3.12/site-packages/numpy (version 2.4.4)
scipy:  /home/luis-ochoa/Documents/Vscode/py/dft/.venv/lib/python3.12/site-packages/scipy (version 1.17.1)
libxc:  5.2.3
units:  Angstrom and eV
cores: 7
OpenMP: False
OMP_NUM_THREADS: 1

Reading from /home/luis-ochoa/Documents/Vscode/py/dft/calculations/top8_pbe/CsPbI3/02_scf/scf.gpw
Read dipole, energy, free_energy, magmom, magmoms
Reading input parameters:
  convergence: {bands: occupied,
                density: 0.0001,
                eigenstates: 4e-08,
                energy: 1e-08}
  kpts: {gamma: True,
         size: [4, 4, 4]}
  mixer: {backend: pulay,
          beta: 0.05,
          method: separate,
          nmaxold: 5,
          weight: 50.0}
  mode: {ecut: 450.00000000000006,
         name: pw}
  symmetry: off
  xc: PBE

Initialize ...

species:
  Cs:
    name: Caesium
    id: fa822afd343f47335d508b9ee4f394c3
    Z: 55.0
    valence: 9
    core: 46
    charge: 0.0
    file: /home/luis-ochoa/.gpaw/gpaw-setups-24.11.0/Cs.PBE.gz
    compensation charges: {type: gauss,
                           rc: 0.33,
                           lmax: 2}
    cutoffs: {filter: 2.06,
              core: 2.51}
    projectors:
      #              energy  rcut
      - 5s(2.00)   -26.706   1.164
      - 6s(1.00)    -2.085   1.164
      - 5p(6.00)   -13.523   1.058
      -  p          13.688   1.058
      -  d           0.000   1.058
  
    # Using partial waves for Cs as LCAO basis

  Pb:
    name: Lead
    id: 66e73b13d76dc837202bcdb13fee58e6
    Z: 82.0
    valence: 14
    core: 68
    charge: 0.0
    file: /home/luis-ochoa/.gpaw/gpaw-setups-24.11.0/Pb.PBE.gz
    compensation charges: {type: gauss,
                           rc: 0.38,
                           lmax: 2}
    cutoffs: {filter: 2.36,
              core: 2.43}
    projectors:
      #              energy  rcut
      - 6s(2.00)   -11.969   1.259
      - 6p(2.00)    -3.506   1.275
      - 5d(10.00)   -21.211   1.217
      -  s          15.243   1.259
      -  p          23.705   1.275
      -  d           6.001   1.217
  
    # Using partial waves for Pb as LCAO basis

  I:
    name: Iodine
    id: 91405a398e4dfe788ff04f57531604ec
    Z: 53.0
    valence: 7
    core: 46
    charge: 0.0
    file: /home/luis-ochoa/.gpaw/gpaw-setups-24.11.0/I.PBE.gz
    compensation charges: {type: gauss,
                           rc: 0.37,
                           lmax: 2}
    cutoffs: {filter: 2.06,
              core: 2.90}
    projectors:
      #              energy  rcut
      - 5s(2.00)   -17.382   1.164
      - 5p(5.00)    -7.088   1.164
      -  s           9.829   1.164
      -  p          20.123   1.164
      -  d           0.000   1.164
  
    # Using partial waves for I as LCAO basis

Reference energy: -1359696.926849  # eV

Spin-paired calculation

Convergence criteria:
 Maximum [total energy] change in last 3 cyles: 1e-08 eV / valence electron
 Maximum integral of absolute [dens]ity change: 0.0001 electrons / valence electron
 Maximum integral of absolute [eigenst]ate change: 4e-08 eV^2 / valence electron
 Maximum number of scf [iter]ations: 333
 (Square brackets indicate name in SCF output, whereas a 'c' in
 the SCF output indicates the quantity has converged.)

Symmetries present (total): 1

  ( 1  0  0)
  ( 0  1  0)
  ( 0  0  1)

64 k-points: 4 x 4 x 4 Monkhorst-Pack grid + [1/8,1/8,1/8]
64 k-points in the irreducible part of the Brillouin zone
       k-points in crystal coordinates                weights
   0:    -0.25000000   -0.25000000   -0.25000000          1/64
   1:    -0.25000000   -0.25000000    0.00000000          1/64
   2:    -0.25000000   -0.25000000    0.25000000          1/64
   3:    -0.25000000   -0.25000000    0.50000000          1/64
   4:    -0.25000000    0.00000000   -0.25000000          1/64
   5:    -0.25000000    0.00000000    0.00000000          1/64
   6:    -0.25000000    0.00000000    0.25000000          1/64
   7:    -0.25000000    0.00000000    0.50000000          1/64
   8:    -0.25000000    0.25000000   -0.25000000          1/64
   9:    -0.25000000    0.25000000    0.00000000          1/64
          ...
  63:     0.50000000    0.50000000    0.50000000          1/64

Wave functions: Plane wave expansion
  Cutoff energy: 450.000 eV
  Number of coefficients (min, max): 5390, 5452
  Pulay-stress correction: 0.000000 eV/Ang^3 (de/decut=0.000000)
  Using Numpy's FFT
  ScaLapack parameters: grid=1x1, blocksize=None
  Wavefunction extrapolation:
    Improved wavefunction reuse through dual PAW basis 

Occupation numbers: Fermi-Dirac:
  width: 0.1000  # eV
 

Eigensolver
   Davidson(niter=2) 

Densities:
  Coarse grid: 32*32*32 grid
  Fine grid: 64*64*64 grid
  Total Charge: 0.000000 

Density mixing:
  Method: separate
  Backend: pulay
  Linear mixing parameter: 0.05
  old densities: 5
  Damping of long wavelength oscillations: 50 

Hamiltonian:
  XC and Coulomb potentials evaluated on a 64*64*64 grid
  Using the PBE Exchange-Correlation functional
  External potential:
    NoExternalPotential
 

XC parameters: PBE with 2 nearest neighbor stencil

Memory estimate:
  Process memory now: 314.85 MiB
  Calculator: 55.79 MiB
    Density: 17.63 MiB
      Arrays: 6.50 MiB
      Localized functions: 8.63 MiB
      Mixer: 2.50 MiB
    Hamiltonian: 4.49 MiB
      Arrays: 4.25 MiB
      XC: 0.00 MiB
      Poisson: 0.00 MiB
      vbar: 0.24 MiB
    Wavefunctions: 33.67 MiB
      Arrays psit_nG: 19.47 MiB
      Eigensolver: 2.68 MiB
      Projections: 0.25 MiB
      Projectors: 9.27 MiB
      PW-descriptor: 2.00 MiB

Total number of cores used: 7
Parallelization over k-points: 7

Number of atoms: 5
Number of atomic orbitals: 26
Number of bands in calculation: 26
Number of valence electrons: 44
Bands to converge: occupied

... initialized

Input parameters:
  convergence: {bands: -12}
  fixdensity: True
  kpts: {cell: Cell([6.296499999999999, 6.296499999999999, 6.296499999999999]),
         kpts: [[0.         0.         0.        ]
 [0.         0.02941176 0.        ]
 [0.         0.05882353 0.        ]
 ...
 [0.04       0.04       0.        ]
 [0.02       0.02       0.        ]
 [0.         0.         0.        ]],
         labelseq: GXMG,
         special_points: {'G': array([0., 0., 0.]), 'M': array([0.5, 0.5, 0. ]), 'R': array([0.5, 0.5, 0.5]), 'X': array([0. , 0.5, 0. ])}}

Initialize ...

species:
  Cs:
    name: Caesium
    id: fa822afd343f47335d508b9ee4f394c3
    Z: 55.0
    valence: 9
    core: 46
    charge: 0.0
    file: /home/luis-ochoa/.gpaw/gpaw-setups-24.11.0/Cs.PBE.gz
    compensation charges: {type: gauss,
                           rc: 0.33,
                           lmax: 2}
    cutoffs: {filter: 2.06,
              core: 2.51}
    projectors:
      #              energy  rcut
      - 5s(2.00)   -26.706   1.164
      - 6s(1.00)    -2.085   1.164
      - 5p(6.00)   -13.523   1.058
      -  p          13.688   1.058
      -  d           0.000   1.058
  
    # Using partial waves for Cs as LCAO basis

  Pb:
    name: Lead
    id: 66e73b13d76dc837202bcdb13fee58e6
    Z: 82.0
    valence: 14
    core: 68
    charge: 0.0
    file: /home/luis-ochoa/.gpaw/gpaw-setups-24.11.0/Pb.PBE.gz
    compensation charges: {type: gauss,
                           rc: 0.38,
                           lmax: 2}
    cutoffs: {filter: 2.36,
              core: 2.43}
    projectors:
      #              energy  rcut
      - 6s(2.00)   -11.969   1.259
      - 6p(2.00)    -3.506   1.275
      - 5d(10.00)   -21.211   1.217
      -  s          15.243   1.259
      -  p          23.705   1.275
      -  d           6.001   1.217
  
    # Using partial waves for Pb as LCAO basis

  I:
    name: Iodine
    id: 91405a398e4dfe788ff04f57531604ec
    Z: 53.0
    valence: 7
    core: 46
    charge: 0.0
    file: /home/luis-ochoa/.gpaw/gpaw-setups-24.11.0/I.PBE.gz
    compensation charges: {type: gauss,
                           rc: 0.37,
                           lmax: 2}
    cutoffs: {filter: 2.06,
              core: 2.90}
    projectors:
      #              energy  rcut
      - 5s(2.00)   -17.382   1.164
      - 5p(5.00)    -7.088   1.164
      -  s           9.829   1.164
      -  p          20.123   1.164
      -  d           0.000   1.164
  
    # Using partial waves for I as LCAO basis

Reference energy: -1359696.926849  # eV

Spin-paired calculation

Convergence criteria:
 Maximum [total energy] change in last 3 cyles: 0.0005 eV / valence electron
 Maximum integral of absolute [dens]ity change: 0.0001 electrons / valence electron
 Maximum integral of absolute [eigenst]ate change: 4e-08 eV^2 / valence electron
 Maximum number of scf [iter]ations: 333
 (Square brackets indicate name in SCF output, whereas a 'c' in
 the SCF output indicates the quantity has converged.)

Symmetries present (total): 1

  ( 1  0  0)
  ( 0  1  0)
  ( 0  0  1)

60 k-points
60 k-points in the irreducible part of the Brillouin zone
       k-points in crystal coordinates                weights
   0:     0.00000000    0.00000000    0.00000000       0.01666667
   1:     0.00000000    0.02941176    0.00000000       0.01666667
   2:     0.00000000    0.05882353    0.00000000       0.01666667
   3:     0.00000000    0.08823529    0.00000000       0.01666667
   4:     0.00000000    0.11764706    0.00000000       0.01666667
   5:     0.00000000    0.14705882    0.00000000       0.01666667
   6:     0.00000000    0.17647059    0.00000000       0.01666667
   7:     0.00000000    0.20588235    0.00000000       0.01666667
   8:     0.00000000    0.23529412    0.00000000       0.01666667
   9:     0.00000000    0.26470588    0.00000000       0.01666667
          ...
  59:     0.00000000    0.00000000    0.00000000       0.01666667

Wave functions: Plane wave expansion
  Cutoff energy: 450.000 eV
  Number of coefficients (min, max): 5382, 5449
  Pulay-stress correction: 0.000000 eV/Ang^3 (de/decut=0.000000)
  Using Numpy's FFT
  ScaLapack parameters: grid=1x1, blocksize=None
  Wavefunction extrapolation:
    Improved wavefunction reuse through dual PAW basis 

Occupation numbers: Fermi-Dirac:
  width: 0.1000  # eV
 

Eigensolver
   Davidson(niter=2) 

No density mixing

XC parameters: PBE with 2 nearest neighbor stencil

Memory estimate:
  Process memory now: 314.85 MiB
  Calculator: 52.51 MiB
    Density: 17.63 MiB
      Arrays: 6.50 MiB
      Localized functions: 8.63 MiB
      Mixer: 2.50 MiB
    Hamiltonian: 4.49 MiB
      Arrays: 4.25 MiB
      XC: 0.00 MiB
      Poisson: 0.00 MiB
      vbar: 0.24 MiB
    Wavefunctions: 30.39 MiB
      Arrays psit_nG: 17.29 MiB
      Eigensolver: 2.68 MiB
      Projections: 0.22 MiB
      Projectors: 8.27 MiB
      PW-descriptor: 1.92 MiB

Total number of cores used: 7
Parallelization over k-points: 7

Number of atoms: 5
Number of atomic orbitals: 26
Number of bands in calculation: 26
Number of valence electrons: 44
Bands to converge: 14

... initialized

Initializing position-dependent things.

Creating initial wave functions:
  26 bands from LCAO basis set

     .--------------.  
    /|              |  
   / |              |  
  /  |              |  
 *   |              |  
 |   |              |  
 |   |    Cs        |  
 |   |              |  
 I   .--------------.  
 |  /              /   
 | I              /    
 |/              /     
 Pb-----I-------*      

Atomic positions and initial magnetic moments

Positions:
   0 Cs     3.148250    3.148250    3.148250    ( 0.0000,  0.0000,  0.0000)
   1 Pb     0.000000    0.000000    0.000000    ( 0.0000,  0.0000,  0.0000)
   2 I      3.148250    0.000000    0.000000    ( 0.0000,  0.0000,  0.0000)
   3 I      0.000000    3.148250    0.000000    ( 0.0000,  0.0000,  0.0000)
   4 I      0.000000    0.000000    3.148250    ( 0.0000,  0.0000,  0.0000)

Unit cell:
           periodic     x           y           z      points  spacing
  1. axis:    yes    6.296500    0.000000    0.000000    32     0.1968
  2. axis:    yes    0.000000    6.296500    0.000000    32     0.1968
  3. axis:    yes    0.000000    0.000000    6.296500    32     0.1968

  Lengths:   6.296500   6.296500   6.296500
  Angles:   90.000000  90.000000  90.000000

Effective grid spacing dv^(1/3) = 0.1968

     iter     time        total  log10-change:
                         energy   eigst   dens
iter:   1 07:39:11   -15.324138   -0.80       c
iter:   2 07:39:14   -15.360642   -2.07       c
iter:   3 07:39:17   -15.363883   -3.09       c
iter:   4 07:39:20   -15.364270c  -4.03       c
iter:   5 07:39:23   -15.364325c  -4.87       c
iter:   6 07:39:26   -15.364335c  -5.60       c
iter:   7 07:39:29   -15.364336c  -6.20       c
iter:   8 07:39:32   -15.364337c  -6.71       c
iter:   9 07:39:36   -15.364337c  -7.15       c
iter:  10 07:39:39   -15.364337c  -7.59c      c

Converged after 10 iterations.

Dipole moment: (-0.000000, -0.000000, -0.000000) |e|*Ang

Energy contributions relative to reference atoms: (reference = -1359696.926849)

Kinetic:        +30.785672
Potential:      -31.908979
External:        +0.000000
XC:             -14.133923
Entropy (-ST):   -0.000009
Local:           -0.107103
SIC:             +0.000000
--------------------------
Free energy:    -15.364341
Extrapolated:   -15.364337

Showing only first 2 kpts
 Kpt  Band  Eigenvalues  Occupancy
  0    20      1.15888    2.00000
  0    21      1.15888    2.00000
  0    22      5.46550    0.00000
  0    23      8.08799    0.00000

  1    20      1.15749    2.00000
  1    21      1.15749    2.00000
  1    22      5.47416    0.00000
  1    23      7.68553    0.00000


Fermi level: 3.08000

Gap: 2.232 eV
Transition (v -> c):
  (s=0, k=34, n=21, [0.50, 0.50, 0.00]) -> (s=0, k=34, n=22, [0.50, 0.50, 0.00])
No difference between direct/indirect transitions
Writing to /home/luis-ochoa/Documents/Vscode/py/dft/calculations/top8_pbe/CsPbI3/03_bands/bands.gpw (mode='')

Timing:                              incl.     excl.
-----------------------------------------------------------
Hamiltonian:                         0.194     0.002   0.0% |
 Atomic:                             0.066     0.066   0.2% |
  XC Correction:                     0.000     0.000   0.0% |
 Calculate atomic Hamiltonians:      0.024     0.024   0.1% |
 Communicate:                        0.000     0.000   0.0% |
 Poisson:                            0.002     0.002   0.0% |
 XC 3D grid:                         0.101     0.101   0.3% |
LCAO initialization:                 1.971     0.204   0.6% |
 LCAO eigensolver:                   0.092     0.000   0.0% |
  Calculate projections:             0.001     0.001   0.0% |
  DenseAtomicCorrection:             0.003     0.003   0.0% |
  Distribute overlap matrix:         0.000     0.000   0.0% |
  Orbital Layouts:                   0.003     0.003   0.0% |
  Potential matrix:                  0.082     0.082   0.2% |
  Sum over cells:                    0.002     0.002   0.0% |
 LCAO to grid:                       1.564     1.564   4.6% |-|
 Set positions (LCAO WFS):           0.111     0.019   0.1% |
  Basic WFS set positions:           0.000     0.000   0.0% |
  Basis functions set positions:     0.000     0.000   0.0% |
  P tci:                             0.049     0.049   0.1% |
  ST tci:                            0.035     0.035   0.1% |
  mktci:                             0.008     0.008   0.0% |
PWDescriptor:                        0.025     0.025   0.1% |
Redistribute:                        0.000     0.000   0.0% |
SCF-cycle:                          31.428     4.879  14.2% |-----|
 Davidson:                          26.402     4.290  12.5% |----|
  Apply H:                           4.113     4.016  11.7% |----|
   HMM T:                            0.097     0.097   0.3% |
  Subspace diag:                     5.425     0.010   0.0% |
   calc_h_matrix:                    4.655     0.551   1.6% ||
    Apply H:                         4.105     4.009  11.7% |----|
     HMM T:                          0.095     0.095   0.3% |
   diagonalize:                      0.043     0.043   0.1% |
   rotate_psi:                       0.718     0.718   2.1% ||
  calc. matrices:                   10.969     2.760   8.0% |--|
   Apply H:                          8.209     8.016  23.3% |--------|
    HMM T:                           0.193     0.193   0.6% |
  diagonalize:                       0.189     0.189   0.5% |
  rotate_psi:                        1.417     1.417   4.1% |-|
 Orthonormalize:                     0.147     0.001   0.0% |
  calc_s_matrix:                     0.029     0.029   0.1% |
  inverse-cholesky:                  0.001     0.001   0.0% |
  projections:                       0.079     0.079   0.2% |
  rotate_psi_s:                      0.037     0.037   0.1% |
Set symmetry:                        0.000     0.000   0.0% |
Other:                               0.755     0.755   2.2% ||
-----------------------------------------------------------
Total:                                        34.373 100.0%

Memory usage: 357.04 MiB
Date: Sat May  9 07:39:39 2026
