
  ___ ___ ___ _ _ _  
 |   |   |_  | | | | 
 | | | | | . | | | | 
 |__ |  _|___|_____|  25.7.0
 |___|_|             

User:   luis-ochoa@luis-pc
Date:   Sat May  9 04:44:00 2026
Arch:   x86_64
Pid:    39556
CWD:    /home/luis-ochoa/Documents/Vscode/py/dft
Python: 3.12.3
gpaw:   /home/luis-ochoa/Documents/Vscode/py/dft/.venv/lib/python3.12/site-packages/gpaw
_gpaw:  /home/luis-ochoa/Documents/Vscode/py/dft/.venv/lib/python3.12/site-packages/
        _gpaw.cpython-312-x86_64-linux-gnu.so
ase:    /home/luis-ochoa/Documents/Vscode/py/dft/.venv/lib/python3.12/site-packages/ase (version 3.28.0)
numpy:  /home/luis-ochoa/Documents/Vscode/py/dft/.venv/lib/python3.12/site-packages/numpy (version 2.4.4)
scipy:  /home/luis-ochoa/Documents/Vscode/py/dft/.venv/lib/python3.12/site-packages/scipy (version 1.17.1)
libxc:  5.2.3
units:  Angstrom and eV
cores: 7
OpenMP: False
OMP_NUM_THREADS: 1

Reading from /home/luis-ochoa/Documents/Vscode/py/dft/calculations/top8_pbe/MASnI3/02_scf/scf.gpw
Read dipole, energy, free_energy, magmom, magmoms
Reading input parameters:
  convergence: {bands: occupied,
                density: 0.0001,
                eigenstates: 4e-08,
                energy: 1e-08}
  kpts: {gamma: True,
         size: [4, 4, 4]}
  mixer: {backend: pulay,
          beta: 0.05,
          method: separate,
          nmaxold: 5,
          weight: 50.0}
  mode: {ecut: 450.00000000000006,
         name: pw}
  symmetry: off
  xc: PBE

Initialize ...

species:
  Sn:
    name: Tin
    id: d1329c6b410f1e0bd923643368775dcd
    Z: 50.0
    valence: 14
    core: 36
    charge: 0.0
    file: /home/luis-ochoa/.gpaw/gpaw-setups-24.11.0/Sn.PBE.gz
    compensation charges: {type: gauss,
                           rc: 0.38,
                           lmax: 2}
    cutoffs: {filter: 2.23,
              core: 2.35}
    projectors:
      #              energy  rcut
      - 5s(2.00)   -10.538   1.201
      - 5p(2.00)    -3.696   1.270
      - 4d(10.00)   -25.845   1.185
      -  s          16.674   1.201
      -  p          23.515   1.270
      -  d           1.367   1.185
  
    # Using partial waves for Sn as LCAO basis

  I:
    name: Iodine
    id: 91405a398e4dfe788ff04f57531604ec
    Z: 53.0
    valence: 7
    core: 46
    charge: 0.0
    file: /home/luis-ochoa/.gpaw/gpaw-setups-24.11.0/I.PBE.gz
    compensation charges: {type: gauss,
                           rc: 0.37,
                           lmax: 2}
    cutoffs: {filter: 2.06,
              core: 2.90}
    projectors:
      #              energy  rcut
      - 5s(2.00)   -17.382   1.164
      - 5p(5.00)    -7.088   1.164
      -  s           9.829   1.164
      -  p          20.123   1.164
      -  d           0.000   1.164
  
    # Using partial waves for I as LCAO basis

  C:
    name: Carbon
    id: 4aa54d4b901d75f77cc0ea3eec22967b
    Z: 6.0
    valence: 4
    core: 2
    charge: 0.0
    file: /home/luis-ochoa/.gpaw/gpaw-setups-24.11.0/C.PBE.gz
    compensation charges: {type: gauss,
                           rc: 0.20,
                           lmax: 2}
    cutoffs: {filter: 1.14,
              core: 1.14}
    projectors:
      #              energy  rcut
      - 2s(2.00)   -13.751   0.635
      - 2p(2.00)    -5.284   0.635
      -  s          13.461   0.635
      -  p          21.927   0.635
      -  d           0.000   0.635
  
    # Using partial waves for C as LCAO basis

  N:
    name: Nitrogen
    id: f7500608b86eaa90eef8b1d9a670dc53
    Z: 7.0
    valence: 5
    core: 2
    charge: 0.0
    file: /home/luis-ochoa/.gpaw/gpaw-setups-24.11.0/N.PBE.gz
    compensation charges: {type: gauss,
                           rc: 0.18,
                           lmax: 2}
    cutoffs: {filter: 1.11,
              core: 0.96}
    projectors:
      #              energy  rcut
      - 2s(2.00)   -18.583   0.603
      - 2p(3.00)    -7.089   0.529
      -  s           8.629   0.603
      -  p          20.123   0.529
      -  d           0.000   0.577
  
    # Using partial waves for N as LCAO basis

  H:
    name: Hydrogen
    id: d65de229564ff8ea4db303e23b6d1ecf
    Z: 1.0
    valence: 1
    core: 0
    charge: 0.0
    file: /home/luis-ochoa/.gpaw/gpaw-setups-24.11.0/H.PBE.gz
    compensation charges: {type: gauss,
                           rc: 0.15,
                           lmax: 2}
    cutoffs: {filter: 0.85,
              core: 0.53}
    projectors:
      #              energy  rcut
      - 1s(1.00)    -6.494   0.476
      -  s          20.717   0.476
      -  p           0.000   0.476
  
    # Using partial waves for H as LCAO basis

Reference energy: -751217.370899  # eV

Spin-paired calculation

Convergence criteria:
 Maximum [total energy] change in last 3 cyles: 1e-08 eV / valence electron
 Maximum integral of absolute [dens]ity change: 0.0001 electrons / valence electron
 Maximum integral of absolute [eigenst]ate change: 4e-08 eV^2 / valence electron
 Maximum number of scf [iter]ations: 333
 (Square brackets indicate name in SCF output, whereas a 'c' in
 the SCF output indicates the quantity has converged.)

Symmetries present (total): 1

  ( 1  0  0)
  ( 0  1  0)
  ( 0  0  1)

64 k-points: 4 x 4 x 4 Monkhorst-Pack grid + [1/8,1/8,1/8]
64 k-points in the irreducible part of the Brillouin zone
       k-points in crystal coordinates                weights
   0:    -0.25000000   -0.25000000   -0.25000000          1/64
   1:    -0.25000000   -0.25000000    0.00000000          1/64
   2:    -0.25000000   -0.25000000    0.25000000          1/64
   3:    -0.25000000   -0.25000000    0.50000000          1/64
   4:    -0.25000000    0.00000000   -0.25000000          1/64
   5:    -0.25000000    0.00000000    0.00000000          1/64
   6:    -0.25000000    0.00000000    0.25000000          1/64
   7:    -0.25000000    0.00000000    0.50000000          1/64
   8:    -0.25000000    0.25000000   -0.25000000          1/64
   9:    -0.25000000    0.25000000    0.00000000          1/64
          ...
  63:     0.50000000    0.50000000    0.50000000          1/64

Wave functions: Plane wave expansion
  Cutoff energy: 450.000 eV
  Number of coefficients (min, max): 5222, 5294
  Pulay-stress correction: 0.000000 eV/Ang^3 (de/decut=0.000000)
  Using Numpy's FFT
  ScaLapack parameters: grid=1x1, blocksize=None
  Wavefunction extrapolation:
    Improved wavefunction reuse through dual PAW basis 

Occupation numbers: Fermi-Dirac:
  width: 0.1000  # eV
 

Eigensolver
   Davidson(niter=2) 

Densities:
  Coarse grid: 32*32*32 grid
  Fine grid: 64*64*64 grid
  Total Charge: 0.000000 

Density mixing:
  Method: separate
  Backend: pulay
  Linear mixing parameter: 0.05
  old densities: 5
  Damping of long wavelength oscillations: 50 

Hamiltonian:
  XC and Coulomb potentials evaluated on a 64*64*64 grid
  Using the PBE Exchange-Correlation functional
  External potential:
    NoExternalPotential
 

XC parameters: PBE with 2 nearest neighbor stencil

Memory estimate:
  Process memory now: 425.92 MiB
  Calculator: 67.31 MiB
    Density: 20.25 MiB
      Arrays: 6.50 MiB
      Localized functions: 11.25 MiB
      Mixer: 2.50 MiB
    Hamiltonian: 4.59 MiB
      Arrays: 4.25 MiB
      XC: 0.00 MiB
      Poisson: 0.00 MiB
      vbar: 0.34 MiB
    Wavefunctions: 42.48 MiB
      Arrays psit_nG: 24.72 MiB
      Eigensolver: 3.33 MiB
      Projections: 0.53 MiB
      Projectors: 11.93 MiB
      PW-descriptor: 1.98 MiB

Total number of cores used: 7
Parallelization over k-points: 7

Number of atoms: 12
Number of atomic orbitals: 35
Number of bands in calculation: 34
Number of valence electrons: 50
Bands to converge: occupied

... initialized

Input parameters:
  kpts: {gamma: True,
         size: [8, 8, 8]}

Initialize ...

species:
  Sn:
    name: Tin
    id: d1329c6b410f1e0bd923643368775dcd
    Z: 50.0
    valence: 14
    core: 36
    charge: 0.0
    file: /home/luis-ochoa/.gpaw/gpaw-setups-24.11.0/Sn.PBE.gz
    compensation charges: {type: gauss,
                           rc: 0.38,
                           lmax: 2}
    cutoffs: {filter: 2.23,
              core: 2.35}
    projectors:
      #              energy  rcut
      - 5s(2.00)   -10.538   1.201
      - 5p(2.00)    -3.696   1.270
      - 4d(10.00)   -25.845   1.185
      -  s          16.674   1.201
      -  p          23.515   1.270
      -  d           1.367   1.185
  
    # Using partial waves for Sn as LCAO basis

  I:
    name: Iodine
    id: 91405a398e4dfe788ff04f57531604ec
    Z: 53.0
    valence: 7
    core: 46
    charge: 0.0
    file: /home/luis-ochoa/.gpaw/gpaw-setups-24.11.0/I.PBE.gz
    compensation charges: {type: gauss,
                           rc: 0.37,
                           lmax: 2}
    cutoffs: {filter: 2.06,
              core: 2.90}
    projectors:
      #              energy  rcut
      - 5s(2.00)   -17.382   1.164
      - 5p(5.00)    -7.088   1.164
      -  s           9.829   1.164
      -  p          20.123   1.164
      -  d           0.000   1.164
  
    # Using partial waves for I as LCAO basis

  C:
    name: Carbon
    id: 4aa54d4b901d75f77cc0ea3eec22967b
    Z: 6.0
    valence: 4
    core: 2
    charge: 0.0
    file: /home/luis-ochoa/.gpaw/gpaw-setups-24.11.0/C.PBE.gz
    compensation charges: {type: gauss,
                           rc: 0.20,
                           lmax: 2}
    cutoffs: {filter: 1.14,
              core: 1.14}
    projectors:
      #              energy  rcut
      - 2s(2.00)   -13.751   0.635
      - 2p(2.00)    -5.284   0.635
      -  s          13.461   0.635
      -  p          21.927   0.635
      -  d           0.000   0.635
  
    # Using partial waves for C as LCAO basis

  N:
    name: Nitrogen
    id: f7500608b86eaa90eef8b1d9a670dc53
    Z: 7.0
    valence: 5
    core: 2
    charge: 0.0
    file: /home/luis-ochoa/.gpaw/gpaw-setups-24.11.0/N.PBE.gz
    compensation charges: {type: gauss,
                           rc: 0.18,
                           lmax: 2}
    cutoffs: {filter: 1.11,
              core: 0.96}
    projectors:
      #              energy  rcut
      - 2s(2.00)   -18.583   0.603
      - 2p(3.00)    -7.089   0.529
      -  s           8.629   0.603
      -  p          20.123   0.529
      -  d           0.000   0.577
  
    # Using partial waves for N as LCAO basis

  H:
    name: Hydrogen
    id: d65de229564ff8ea4db303e23b6d1ecf
    Z: 1.0
    valence: 1
    core: 0
    charge: 0.0
    file: /home/luis-ochoa/.gpaw/gpaw-setups-24.11.0/H.PBE.gz
    compensation charges: {type: gauss,
                           rc: 0.15,
                           lmax: 2}
    cutoffs: {filter: 0.85,
              core: 0.53}
    projectors:
      #              energy  rcut
      - 1s(1.00)    -6.494   0.476
      -  s          20.717   0.476
      -  p           0.000   0.476
  
    # Using partial waves for H as LCAO basis

Reference energy: -751217.370899  # eV

Spin-paired calculation

Convergence criteria:
 Maximum [total energy] change in last 3 cyles: 1e-08 eV / valence electron
 Maximum integral of absolute [dens]ity change: 0.0001 electrons / valence electron
 Maximum integral of absolute [eigenst]ate change: 4e-08 eV^2 / valence electron
 Maximum number of scf [iter]ations: 333
 (Square brackets indicate name in SCF output, whereas a 'c' in
 the SCF output indicates the quantity has converged.)

Symmetries present (total): 1

  ( 1  0  0)
  ( 0  1  0)
  ( 0  0  1)

512 k-points: 8 x 8 x 8 Monkhorst-Pack grid + [1/16,1/16,1/16]
512 k-points in the irreducible part of the Brillouin zone
       k-points in crystal coordinates                weights
   0:    -0.37500000   -0.37500000   -0.37500000          1/512
   1:    -0.37500000   -0.37500000   -0.25000000          1/512
   2:    -0.37500000   -0.37500000   -0.12500000          1/512
   3:    -0.37500000   -0.37500000    0.00000000          1/512
   4:    -0.37500000   -0.37500000    0.12500000          1/512
   5:    -0.37500000   -0.37500000    0.25000000          1/512
   6:    -0.37500000   -0.37500000    0.37500000          1/512
   7:    -0.37500000   -0.37500000    0.50000000          1/512
   8:    -0.37500000   -0.25000000   -0.37500000          1/512
   9:    -0.37500000   -0.25000000   -0.25000000          1/512
          ...
 511:     0.50000000    0.50000000    0.50000000          1/512

Wave functions: Plane wave expansion
  Cutoff energy: 450.000 eV
  Number of coefficients (min, max): 5222, 5294
  Pulay-stress correction: 0.000000 eV/Ang^3 (de/decut=0.000000)
  Using Numpy's FFT
  ScaLapack parameters: grid=1x1, blocksize=None
  Wavefunction extrapolation:
    Improved wavefunction reuse through dual PAW basis 

Occupation numbers: Fermi-Dirac:
  width: 0.1000  # eV
 

Eigensolver
   Davidson(niter=2) 

Density mixing:
  Method: separate
  Backend: pulay
  Linear mixing parameter: 0.05
  old densities: 5
  Damping of long wavelength oscillations: 50 

XC parameters: PBE with 2 nearest neighbor stencil

Memory estimate:
  Process memory now: 425.92 MiB
  Calculator: 336.94 MiB
    Density: 20.25 MiB
      Arrays: 6.50 MiB
      Localized functions: 11.25 MiB
      Mixer: 2.50 MiB
    Hamiltonian: 4.59 MiB
      Arrays: 4.25 MiB
      XC: 0.00 MiB
      Poisson: 0.00 MiB
      vbar: 0.34 MiB
    Wavefunctions: 312.10 MiB
      Arrays psit_nG: 200.50 MiB
      Eigensolver: 3.33 MiB
      Projections: 4.28 MiB
      Projectors: 96.85 MiB
      PW-descriptor: 7.15 MiB

Total number of cores used: 7
Parallelization over k-points: 7

Number of atoms: 12
Number of atomic orbitals: 35
Number of bands in calculation: 34
Number of valence electrons: 50
Bands to converge: occupied

... initialized

Initializing position-dependent things.

Creating initial wave functions:
  34 bands from LCAO basis set

     .------I-------Sn 
    /|              |  
   / |           I  |  
  /  |              |  
 *   |     H H      I  
 |   |      N H     |  
 |   | H            |  
 |   |   C          |  
 |   .----H---------.  
 |  /              /   
 | /              /    
 |/              /     
 *--------------*      

Atomic positions and initial magnetic moments

Positions:
   0 Sn    -0.046695   -0.046694   -0.046691    ( 0.0000,  0.0000,  0.0000)
   1 I      2.977522   -0.017008   -0.274292    ( 0.0000,  0.0000,  0.0000)
   2 I     -0.274292    2.977517   -0.017010    ( 0.0000,  0.0000,  0.0000)
   3 I     -0.017011   -0.274295    2.977516    ( 0.0000,  0.0000,  0.0000)
   4 C      2.723947    2.723947    2.723946    ( 0.0000,  0.0000,  0.0000)
   5 N      3.584407    3.584404    3.584411    ( 0.0000,  0.0000,  0.0000)
   6 H      3.308127    1.858830    2.392164    ( 0.0000,  0.0000,  0.0000)
   7 H      2.392168    3.308132    1.858830    ( 0.0000,  0.0000,  0.0000)
   8 H      1.858838    2.392162    3.308134    ( 0.0000,  0.0000,  0.0000)
   9 H      3.060101    4.372886    4.029305    ( 0.0000,  0.0000,  0.0000)
  10 H      4.372887    4.029295    3.060104    ( 0.0000,  0.0000,  0.0000)
  11 H      4.029306    3.060101    4.372891    ( 0.0000,  0.0000,  0.0000)

Unit cell:
           periodic     x           y           z      points  spacing
  1. axis:    yes    6.240000    0.000000    0.000000    32     0.1950
  2. axis:    yes    0.000000    6.240000    0.000000    32     0.1950
  3. axis:    yes    0.000000    0.000000    6.240000    32     0.1950

  Lengths:   6.240000   6.240000   6.240000
  Angles:   90.000000  90.000000  90.000000

Effective grid spacing dv^(1/3) = 0.1950

     iter     time        total  log10-change:
                         energy   eigst   dens
iter:   1 04:45:10   -49.568616
iter:   2 04:45:49   -49.653734   -1.42  -2.28
iter:   3 04:46:28   -49.657927   -2.58  -2.80
iter:   4 04:47:07   -49.658168   -3.65  -2.90
iter:   5 04:47:46   -49.658011   -4.57  -2.94
iter:   6 04:48:26   -49.658025   -5.55  -3.32
iter:   7 04:49:05   -49.658023   -5.71  -3.38
iter:   8 04:49:44   -49.658012   -6.81  -3.67
iter:   9 04:50:22   -49.658010   -7.00  -4.02c
iter:  10 04:51:01   -49.658010   -7.42c -4.20c
iter:  11 04:51:41   -49.658010c  -8.37c -4.46c

Converged after 11 iterations.

Dipole moment: (14.539315, 14.539200, 14.539099) |e|*Ang

Energy contributions relative to reference atoms: (reference = -751217.370899)

Kinetic:        +55.790570
Potential:      -60.693857
External:        +0.000000
XC:             -44.683866
Entropy (-ST):   -0.001004
Local:           -0.070354
SIC:             +0.000000
--------------------------
Free energy:    -49.658512
Extrapolated:   -49.658010

Showing only first 2 kpts
 Kpt  Band  Eigenvalues  Occupancy
  0    23      0.87415    2.00000
  0    24      1.62154    1.99997
  0    25      3.61064    0.00034
  0    26      4.17789    0.00000

  1    23      0.85104    2.00000
  1    24      1.40485    2.00000
  1    25      3.84100    0.00003
  1    26      4.27878    0.00000


Fermi level: 2.74195

Gap: 0.507 eV
Transition (v -> c):
  (s=0, k=511, n=24, [0.50, 0.50, 0.50]) -> (s=0, k=511, n=25, [0.50, 0.50, 0.50])
No difference between direct/indirect transitions
Writing to /home/luis-ochoa/Documents/Vscode/py/dft/calculations/top8_pbe/MASnI3/04_dos/dos.gpw (mode='')

Timing:                              incl.     excl.
-----------------------------------------------------------
Hamiltonian:                         0.255     0.002   0.0% |
 Atomic:                             0.098     0.043   0.0% |
  XC Correction:                     0.054     0.054   0.0% |
 Calculate atomic Hamiltonians:      0.060     0.060   0.0% |
 Communicate:                        0.000     0.000   0.0% |
 Poisson:                            0.002     0.002   0.0% |
 XC 3D grid:                         0.094     0.094   0.0% |
LCAO initialization:                29.459     0.334   0.1% |
 LCAO eigensolver:                   0.390     0.004   0.0% |
  Calculate projections:             0.031     0.031   0.0% |
  DenseAtomicCorrection:             0.069     0.069   0.0% |
  Distribute overlap matrix:         0.002     0.002   0.0% |
  Orbital Layouts:                   0.047     0.047   0.0% |
  Potential matrix:                  0.197     0.197   0.0% |
  Sum over cells:                    0.041     0.041   0.0% |
 LCAO to grid:                      26.066    26.066   5.7% |-|
 Set positions (LCAO WFS):           2.669     0.328   0.1% |
  Basic WFS set positions:           0.001     0.001   0.0% |
  Basis functions set positions:     0.000     0.000   0.0% |
  P tci:                             1.384     1.384   0.3% |
  ST tci:                            0.938     0.938   0.2% |
  mktci:                             0.018     0.018   0.0% |
PWDescriptor:                        0.094     0.094   0.0% |
Redistribute:                        0.000     0.000   0.0% |
SCF-cycle:                         429.487    17.207   3.7% ||
 Davidson:                         379.046    72.531  15.7% |-----|
  Apply H:                          54.726    53.421  11.6% |----|
   HMM T:                            1.305     1.305   0.3% |
  Subspace diag:                    74.574     0.098   0.0% |
   calc_h_matrix:                   63.397     8.653   1.9% ||
    Apply H:                        54.744    53.443  11.6% |----|
     HMM T:                          1.301     1.301   0.3% |
   diagonalize:                      0.443     0.443   0.1% |
   rotate_psi:                      10.636    10.636   2.3% ||
  calc. matrices:                  152.251    42.874   9.3% |---|
   Apply H:                        109.377   106.788  23.2% |--------|
    HMM T:                           2.589     2.589   0.6% |
  diagonalize:                       3.627     3.627   0.8% |
  rotate_psi:                       21.337    21.337   4.6% |-|
 Density:                           28.253     0.000   0.0% |
  Atomic density matrices:           0.275     0.275   0.1% |
  Mix:                               0.794     0.794   0.2% |
  Multipole moments:                 0.003     0.003   0.0% |
  Pseudo density:                   27.181    27.181   5.9% |-|
   Symmetrize density:               0.000     0.000   0.0% |
 Hamiltonian:                        2.711     0.015   0.0% |
  Atomic:                            0.981     0.474   0.1% |
   XC Correction:                    0.508     0.508   0.1% |
  Calculate atomic Hamiltonians:     0.618     0.618   0.1% |
  Communicate:                       0.000     0.000   0.0% |
  Poisson:                           0.015     0.015   0.0% |
  XC 3D grid:                        1.081     1.081   0.2% |
 Orthonormalize:                     2.269     0.010   0.0% |
  calc_s_matrix:                     0.405     0.405   0.1% |
  inverse-cholesky:                  0.015     0.015   0.0% |
  projections:                       1.337     1.337   0.3% |
  rotate_psi_s:                      0.502     0.502   0.1% |
Set symmetry:                        0.000     0.000   0.0% |
Other:                               1.712     1.712   0.4% |
-----------------------------------------------------------
Total:                                       461.007 100.0%

Memory usage: 679.64 MiB
Date: Sat May  9 04:51:41 2026
