
  ___ ___ ___ _ _ _  
 |   |   |_  | | | | 
 | | | | | . | | | | 
 |__ |  _|___|_____|  25.7.0
 |___|_|             

User:   luis-ochoa@luis-pc
Date:   Tue May 19 04:52:53 2026
Arch:   x86_64
Pid:    244293
CWD:    /home/luis-ochoa/Documents/Vscode/py/dft
Python: 3.12.3
gpaw:   /home/luis-ochoa/Documents/Vscode/py/dft/.venv/lib/python3.12/site-packages/gpaw
_gpaw:  /home/luis-ochoa/Documents/Vscode/py/dft/.venv/lib/python3.12/site-packages/
        _gpaw.cpython-312-x86_64-linux-gnu.so
ase:    /home/luis-ochoa/Documents/Vscode/py/dft/.venv/lib/python3.12/site-packages/ase (version 3.28.0)
numpy:  /home/luis-ochoa/Documents/Vscode/py/dft/.venv/lib/python3.12/site-packages/numpy (version 2.4.4)
scipy:  /home/luis-ochoa/Documents/Vscode/py/dft/.venv/lib/python3.12/site-packages/scipy (version 1.17.1)
libxc:  5.2.3
units:  Angstrom and eV
cores: 7
OpenMP: False
OMP_NUM_THREADS: 1

Input parameters:
  convergence: {energy: 1e-06,
                forces: 0.01}
  kpts: {gamma: True,
         size: [6, 6, 6]}
  mixer: {backend: pulay,
          beta: 0.05,
          method: separate,
          nmaxold: 5,
          weight: 50.0}
  mode: {ecut: 450.00000000000006,
         name: pw}
  xc: PBE

System changes: positions, numbers, cell, pbc, initial_charges, initial_magmoms 

Initialize ...

species:
  Pb:
    name: Lead
    id: 66e73b13d76dc837202bcdb13fee58e6
    Z: 82.0
    valence: 14
    core: 68
    charge: 0.0
    file: /home/luis-ochoa/.gpaw/gpaw-setups-24.11.0/Pb.PBE.gz
    compensation charges: {type: gauss,
                           rc: 0.38,
                           lmax: 2}
    cutoffs: {filter: 2.36,
              core: 2.43}
    projectors:
      #              energy  rcut
      - 6s(2.00)   -11.969   1.259
      - 6p(2.00)    -3.506   1.275
      - 5d(10.00)   -21.211   1.217
      -  s          15.243   1.259
      -  p          23.705   1.275
      -  d           6.001   1.217
  
    # Using partial waves for Pb as LCAO basis

  Br:
    name: Bromine
    id: 39dc90fcf3bf77f2d83386b416c2c495
    Z: 35.0
    valence: 7
    core: 28
    charge: 0.0
    file: /home/luis-ochoa/.gpaw/gpaw-setups-24.11.0/Br.PBE.gz
    compensation charges: {type: gauss,
                           rc: 0.35,
                           lmax: 2}
    cutoffs: {filter: 1.98,
              core: 2.38}
    projectors:
      #              energy  rcut
      - 4s(2.00)   -20.121   1.111
      - 4p(5.00)    -7.861   1.111
      -  s           7.091   1.111
      -  p          19.351   1.111
      -  d           0.000   1.111
  
    # Using partial waves for Br as LCAO basis

  C:
    name: Carbon
    id: 4aa54d4b901d75f77cc0ea3eec22967b
    Z: 6.0
    valence: 4
    core: 2
    charge: 0.0
    file: /home/luis-ochoa/.gpaw/gpaw-setups-24.11.0/C.PBE.gz
    compensation charges: {type: gauss,
                           rc: 0.20,
                           lmax: 2}
    cutoffs: {filter: 1.14,
              core: 1.14}
    projectors:
      #              energy  rcut
      - 2s(2.00)   -13.751   0.635
      - 2p(2.00)    -5.284   0.635
      -  s          13.461   0.635
      -  p          21.927   0.635
      -  d           0.000   0.635
  
    # Using partial waves for C as LCAO basis

  N:
    name: Nitrogen
    id: f7500608b86eaa90eef8b1d9a670dc53
    Z: 7.0
    valence: 5
    core: 2
    charge: 0.0
    file: /home/luis-ochoa/.gpaw/gpaw-setups-24.11.0/N.PBE.gz
    compensation charges: {type: gauss,
                           rc: 0.18,
                           lmax: 2}
    cutoffs: {filter: 1.11,
              core: 0.96}
    projectors:
      #              energy  rcut
      - 2s(2.00)   -18.583   0.603
      - 2p(3.00)    -7.089   0.529
      -  s           8.629   0.603
      -  p          20.123   0.529
      -  d           0.000   0.577
  
    # Using partial waves for N as LCAO basis

  H:
    name: Hydrogen
    id: d65de229564ff8ea4db303e23b6d1ecf
    Z: 1.0
    valence: 1
    core: 0
    charge: 0.0
    file: /home/luis-ochoa/.gpaw/gpaw-setups-24.11.0/H.PBE.gz
    compensation charges: {type: gauss,
                           rc: 0.15,
                           lmax: 2}
    cutoffs: {filter: 0.85,
              core: 0.53}
    projectors:
      #              energy  rcut
      - 1s(1.00)    -6.494   0.476
      -  s          20.717   0.476
      -  p           0.000   0.476
  
    # Using partial waves for H as LCAO basis

Reference energy: -784034.728487  # eV

Spin-paired calculation

Convergence criteria:
 Maximum [total energy] change in last 3 cyles: 1e-06 eV / valence electron
 Maximum integral of absolute [dens]ity change: 0.0001 electrons / valence electron
 Maximum integral of absolute [eigenst]ate change: 4e-08 eV^2 / valence electron
 Maximum change in the atomic [forces] across last 2 cycles: 0.01 eV/Ang OR
Maximum error relative to the maximum force is below inf
 Maximum number of scf [iter]ations: 333
 (Square brackets indicate name in SCF output, whereas a 'c' in
 the SCF output indicates the quantity has converged.)

Symmetries present (total): 4

  ( 1  0  0)  ( 1  0  0)  (-1  0  0)  (-1  0  0)
  ( 0  1  0)  ( 0 -1  0)  ( 0  1  0)  ( 0 -1  0)
  ( 0  0  1)  ( 0  0  1)  ( 0  0  1)  ( 0  0  1)

216 k-points: 6 x 6 x 6 Monkhorst-Pack grid + [1/12,1/12,1/12]
64 k-points in the irreducible part of the Brillouin zone
       k-points in crystal coordinates                weights
   0:     0.00000000    0.00000000    0.00000000          1/216
   1:     0.00000000    0.00000000    0.16666667          2/216
   2:     0.00000000    0.00000000    0.33333333          2/216
   3:     0.00000000    0.00000000    0.50000000          1/216
   4:     0.00000000    0.16666667    0.00000000          2/216
   5:     0.00000000    0.16666667    0.16666667          4/216
   6:     0.00000000    0.16666667    0.33333333          4/216
   7:     0.00000000    0.16666667    0.50000000          2/216
   8:     0.00000000    0.33333333    0.00000000          2/216
   9:     0.00000000    0.33333333    0.16666667          4/216
          ...
  63:     0.50000000    0.50000000    0.50000000          1/216

Wave functions: Plane wave expansion
  Cutoff energy: 450.000 eV
  Number of coefficients (min, max): 4636, 4700
  Pulay-stress correction: 0.000000 eV/Ang^3 (de/decut=0.000000)
  Using Numpy's FFT
  ScaLapack parameters: grid=1x1, blocksize=None
  Wavefunction extrapolation:
    Improved wavefunction reuse through dual PAW basis 

Occupation numbers: Fermi-Dirac:
  width: 0.1000  # eV
 

Eigensolver
   Davidson(niter=2) 

Densities:
  Coarse grid: 30*30*30 grid
  Fine grid: 60*60*60 grid
  Total Charge: 0.000000 

Density mixing:
  Method: separate
  Backend: pulay
  Linear mixing parameter: 0.05
  old densities: 5
  Damping of long wavelength oscillations: 50 

Hamiltonian:
  XC and Coulomb potentials evaluated on a 60*60*60 grid
  Using the PBE Exchange-Correlation functional
  External potential:
    NoExternalPotential
 

XC parameters: PBE with 2 nearest neighbor stencil

Memory estimate:
  Process memory now: 136.24 MiB
  Calculator: 61.17 MiB
    Density: 17.39 MiB
      Arrays: 5.36 MiB
      Localized functions: 9.97 MiB
      Mixer: 2.06 MiB
    Hamiltonian: 3.80 MiB
      Arrays: 3.50 MiB
      XC: 0.00 MiB
      Poisson: 0.00 MiB
      vbar: 0.30 MiB
    Wavefunctions: 39.98 MiB
      Arrays psit_nG: 23.88 MiB
      Eigensolver: 3.22 MiB
      Projections: 0.61 MiB
      Projectors: 10.59 MiB
      PW-descriptor: 1.68 MiB

Total number of cores used: 7
Parallelization over k-points: 7

Number of atoms: 12
Number of atomic orbitals: 38
Number of bands in calculation: 37
Number of valence electrons: 54
Bands to converge: occupied

... initialized

Initializing position-dependent things.

Density initialized from atomic densities
Creating initial wave functions:
  37 bands from LCAO basis set

     .--------------.  
    /|              |  
   / |              |  
  /  |              |  
 *   |    H         |  
 |   | H        H   |  
 |   H N  C   H     |  
 |   .--------------.  
 Br /              /   
 | Br             /    
 |/              /     
 Pb-----Br------*      

Atomic positions and initial magnetic moments

Positions:
   0 Pb     0.000000    0.000000    0.000000    ( 0.0000,  0.0000,  0.0000)
   1 Br     2.995000    0.000000    0.000000    ( 0.0000,  0.0000,  0.0000)
   2 Br     0.000000    2.995000    0.000000    ( 0.0000,  0.0000,  0.0000)
   3 Br     0.000000    0.000000    2.995000    ( 0.0000,  0.0000,  0.0000)
   4 C      2.995000    2.995000    2.995000    ( 0.0000,  0.0000,  0.0000)
   5 N      1.715000    2.995000    2.995000    ( 0.0000,  0.0000,  0.0000)
   6 N      4.275000    2.995000    2.995000    ( 0.0000,  0.0000,  0.0000)
   7 H      2.995000    2.995000    4.095000    ( 0.0000,  0.0000,  0.0000)
   8 H      1.205000    3.878346    2.995000    ( 0.0000,  0.0000,  0.0000)
   9 H      1.205000    2.111654    2.995000    ( 0.0000,  0.0000,  0.0000)
  10 H      4.785000    3.878346    2.995000    ( 0.0000,  0.0000,  0.0000)
  11 H      4.785000    2.111654    2.995000    ( 0.0000,  0.0000,  0.0000)

Unit cell:
           periodic     x           y           z      points  spacing
  1. axis:    yes    5.990000    0.000000    0.000000    30     0.1997
  2. axis:    yes    0.000000    5.990000    0.000000    30     0.1997
  3. axis:    yes    0.000000    0.000000    5.990000    30     0.1997

  Lengths:   5.990000   5.990000   5.990000
  Angles:   90.000000  90.000000  90.000000

Effective grid spacing dv^(1/3) = 0.1997

     iter     time        total  log10-change:
                         energy   eigst   dens  force
iter:   1 04:53:13   -50.944525
iter:   2 04:53:25   -49.906563   -1.12  -0.97
iter:   3 04:53:37   -48.762685   -1.71  -1.02
iter:   4 04:53:47   -48.190457   -1.78  -1.12
iter:   5 04:53:58   -47.992268   -1.37  -1.23
iter:   6 04:54:09   -47.909662   -2.36  -1.51
iter:   7 04:54:20   -47.963452   -2.50  -1.62
iter:   8 04:54:31   -47.912460   -3.21  -1.94
iter:   9 04:54:42   -47.887969   -3.20  -2.02
iter:  10 04:54:53   -47.888553   -4.00  -2.47
iter:  11 04:55:04   -47.888458   -5.31  -2.70
iter:  12 04:55:16   -47.887699   -4.37  -2.72
iter:  13 04:55:27   -47.887750   -4.81  -2.94
iter:  14 04:55:38   -47.887701c  -6.21  -3.06
iter:  15 04:55:49   -47.887707c  -6.13  -3.10
iter:  16 04:56:01   -47.887859   -5.96  -3.15
iter:  17 04:56:11   -47.887786   -5.81  -3.39
iter:  18 04:56:23   -47.887743   -6.43  -3.67
iter:  19 04:56:33   -47.887738c  -6.67  -3.89
iter:  20 04:56:47   -47.887743c  -7.63c -4.00c
iter:  21 04:56:58   -47.887751c  -7.02  -4.08c
iter:  22 04:57:11   -47.887749c  -7.49c -4.38c -1.95
iter:  23 04:57:24   -47.887743c  -8.42c -4.75c -2.66c

Converged after 23 iterations.

Dipole moment: (-0.000000, -0.000000, 0.090920) |e|*Ang

Energy contributions relative to reference atoms: (reference = -784034.728487)

Kinetic:        +72.285723
Potential:      -68.104313
External:        +0.000000
XC:             -51.709366
Entropy (-ST):   -0.220975
Local:           -0.249300
SIC:             +0.000000
--------------------------
Free energy:    -47.998231
Extrapolated:   -47.887743

Showing only first 2 kpts
 Kpt  Band  Eigenvalues  Occupancy
  0    25      0.16204    2.00000
  0    26      2.11011    0.81247
  0    27      2.23915    0.31687
  0    28      4.90812    0.00000

  1    25      0.16442    2.00000
  1    26      2.09487    0.88690
  1    27      2.23079    0.33980
  1    28      5.01779    0.00000


Fermi level: 2.07216

No gap
No difference between direct/indirect transitions

Forces in eV/Ang:
  0 Pb    0.00000    0.00000    0.01759
  1 Br    0.00000    0.00000   -0.03999
  2 Br    0.00000    0.00000    0.03364
  3 Br    0.00000    0.00000    0.00163
  4 C     0.00000    0.00000    1.44241
  5 N    -2.52074    0.00000   -2.26997
  6 N     2.52074    0.00000   -2.26997
  7 H     0.00000    0.00000    3.13411
  8 H    -0.81724    0.69394   -0.01112
  9 H    -0.81724   -0.69394   -0.01112
 10 H     0.81724    0.69394   -0.01112
 11 H     0.81724   -0.69394   -0.01112

System changes: positions 

Initializing position-dependent things.

Density initialized from wave functions
     .--------------.  
    /|              |  
   / |              |  
  /  |              |  
 *   |  BrH         |  
 |   | H  C     H   |  
 |   H N      H     |  
 Br  .--------------.  
 |  /              /   
 | Br             /    
 |/              /     
 Pb-------------*      

Atomic positions and initial magnetic moments

Positions:
   0 Pb     0.000000    0.000000    0.000251    ( 0.0000,  0.0000,  0.0000)
   1 Br     2.995000    0.000000   -0.000571    ( 0.0000,  0.0000,  0.0000)
   2 Br     0.000000    2.995000    0.000481    ( 0.0000,  0.0000,  0.0000)
   3 Br     0.000000    0.000000    2.995023    ( 0.0000,  0.0000,  0.0000)
   4 C      2.995000    2.995000    3.015606    ( 0.0000,  0.0000,  0.0000)
   5 N      1.678989    2.995000    2.962572    ( 0.0000,  0.0000,  0.0000)
   6 N      4.311011    2.995000    2.962572    ( 0.0000,  0.0000,  0.0000)
   7 H      2.995000    2.995000    4.139773    ( 0.0000,  0.0000,  0.0000)
   8 H      1.193325    3.888259    2.994841    ( 0.0000,  0.0000,  0.0000)
   9 H      1.193325    2.101741    2.994841    ( 0.0000,  0.0000,  0.0000)
  10 H      4.796675    3.888259    2.994841    ( 0.0000,  0.0000,  0.0000)
  11 H      4.796675    2.101741    2.994841    ( 0.0000,  0.0000,  0.0000)

Unit cell:
           periodic     x           y           z      points  spacing
  1. axis:    yes    5.990000    0.000000    0.000000    30     0.1997
  2. axis:    yes    0.000000    5.990000    0.000000    30     0.1997
  3. axis:    yes    0.000000    0.000000    5.990000    30     0.1997

  Lengths:   5.990000   5.990000   5.990000
  Angles:   90.000000  90.000000  90.000000

Effective grid spacing dv^(1/3) = 0.1997

     iter     time        total  log10-change:
                         energy   eigst   dens  force
iter:   1 04:57:39   -48.531998   -1.66
iter:   2 04:57:50   -48.473914   -2.92  -1.68
iter:   3 04:58:01   -48.400324   -3.01  -1.81
iter:   4 04:58:12   -48.371871   -3.16  -2.21
iter:   5 04:58:22   -48.369448   -3.60  -2.42
iter:   6 04:58:34   -48.368278   -3.90  -2.50
iter:   7 04:58:46   -48.367750   -4.38  -2.87
iter:   8 04:58:56   -48.367981   -4.61  -3.05
iter:   9 04:59:08   -48.367578   -4.70  -3.19
iter:  10 04:59:19   -48.367589   -6.05  -3.57
iter:  11 04:59:29   -48.367608c  -6.05  -3.65
iter:  12 04:59:41   -48.367586c  -6.32  -3.80
iter:  13 04:59:52   -48.367585c  -6.93  -4.10c
iter:  14 05:00:04   -48.367580c  -7.75c -4.17c
iter:  15 05:00:18   -48.367580c  -8.39c -4.31c -2.39c

Converged after 15 iterations.

Dipole moment: (-0.000000, -0.000000, 0.079880) |e|*Ang

Energy contributions relative to reference atoms: (reference = -784034.728487)

Kinetic:        +66.319977
Potential:      -63.860531
External:        +0.000000
XC:             -50.455600
Entropy (-ST):   -0.241143
Local:           -0.250855
SIC:             +0.000000
--------------------------
Free energy:    -48.488152
Extrapolated:   -48.367580

Showing only first 2 kpts
 Kpt  Band  Eigenvalues  Occupancy
  0    25      0.15568    2.00000
  0    26      1.85738    0.88534
  0    27      2.03708    0.23272
  0    28      4.86773    0.00000

  1    25      0.15882    2.00000
  1    26      1.83363    1.00360
  1    27      2.02739    0.25341
  1    28      4.97377    0.00000


Fermi level: 1.83435

No gap
No difference between direct/indirect transitions

Forces in eV/Ang:
  0 Pb    0.00000    0.00000    0.01719
  1 Br    0.00000    0.00000   -0.04051
  2 Br    0.00000    0.00000   -0.01124
  3 Br    0.00000    0.00000    0.01346
  4 C     0.00000    0.00000    3.30956
  5 N    -0.39938    0.00000   -2.55111
  6 N     0.39938    0.00000   -2.55111
  7 H     0.00000    0.00000    1.94163
  8 H    -0.81230    0.63508   -0.01140
  9 H    -0.81230   -0.63508   -0.01140
 10 H     0.81230    0.63508   -0.01140
 11 H     0.81230   -0.63508   -0.01140

System changes: positions 

Initializing position-dependent things.

Density initialized from wave functions
     .--------------.  
    /|              |  
   / |              |  
  /  |              |  
 *   |  BrH         |  
 |   |H   C     H   |  
 |   H N      NH    |  
 Br  .--------------.  
 |  /              /   
 | Br             /    
 |/              /     
 Pb-------------*      

Atomic positions and initial magnetic moments

Positions:
   0 Pb     0.000000    0.000000    0.001481    ( 0.0000,  0.0000,  0.0000)
   1 Br     2.995000    0.000000   -0.003416    ( 0.0000,  0.0000,  0.0000)
   2 Br     0.000000    2.995000    0.001314    ( 0.0000,  0.0000,  0.0000)
   3 Br     0.000000    0.000000    2.995546    ( 0.0000,  0.0000,  0.0000)
   4 C      2.995000    2.995000    3.181816    ( 0.0000,  0.0000,  0.0000)
   5 N      1.573827    2.995000    2.792452    ( 0.0000,  0.0000,  0.0000)
   6 N      4.416173    2.995000    2.792452    ( 0.0000,  0.0000,  0.0000)
   7 H      2.995000    2.995000    4.320257    ( 0.0000,  0.0000,  0.0000)
   8 H      1.135732    3.935282    2.994045    ( 0.0000,  0.0000,  0.0000)
   9 H      1.135732    2.054718    2.994045    ( 0.0000,  0.0000,  0.0000)
  10 H      4.854268    3.935282    2.994045    ( 0.0000,  0.0000,  0.0000)
  11 H      4.854268    2.054718    2.994045    ( 0.0000,  0.0000,  0.0000)

Unit cell:
           periodic     x           y           z      points  spacing
  1. axis:    yes    5.990000    0.000000    0.000000    30     0.1997
  2. axis:    yes    0.000000    5.990000    0.000000    30     0.1997
  3. axis:    yes    0.000000    0.000000    5.990000    30     0.1997

  Lengths:   5.990000   5.990000   5.990000
  Angles:   90.000000  90.000000  90.000000

Effective grid spacing dv^(1/3) = 0.1997

     iter     time        total  log10-change:
                         energy   eigst   dens  force
iter:   1 05:00:32   -54.335413   -0.30
iter:   2 05:00:43   -51.858068   -1.70  -1.02
iter:   3 05:00:54   -51.600555   -1.00  -1.09
iter:   4 05:01:05   -50.983047   -2.50  -1.32
iter:   5 05:01:17   -53.564193   -1.55  -1.35
iter:   6 05:01:28   -52.017954   -1.69  -1.22
iter:   7 05:01:38   -51.019303   -1.22  -1.26
iter:   8 05:01:49   -51.057755   -1.08  -1.38
iter:   9 05:02:00   -49.707483   -1.74  -1.21
iter:  10 05:02:11   -49.815085   -2.32  -1.76
iter:  11 05:02:22   -49.965811   -2.08  -1.65
iter:  12 05:02:33   -49.667751   -2.51  -1.43
iter:  13 05:02:44   -49.670037   -3.32  -2.16
iter:  14 05:02:55   -49.661213   -3.06  -2.27
iter:  15 05:03:06   -49.654795   -3.80  -2.31
iter:  16 05:03:17   -49.651805   -4.42  -2.49
iter:  17 05:03:28   -49.656215   -4.21  -2.57
iter:  18 05:03:40   -49.654943   -5.12  -2.87
iter:  19 05:03:52   -49.654137   -5.89  -2.92
iter:  20 05:04:03   -49.654242   -5.00  -2.96
iter:  21 05:04:14   -49.654067   -6.01  -3.25
iter:  22 05:04:26   -49.654190   -6.21  -3.33
iter:  23 05:04:36   -49.654105   -6.53  -3.44
iter:  24 05:04:47   -49.654053   -7.16  -3.50
iter:  25 05:04:58   -49.654067c  -6.18  -3.55
iter:  26 05:05:10   -49.654051c  -7.37  -3.82
iter:  27 05:05:21   -49.654059c  -7.27  -3.89
iter:  28 05:05:32   -49.654102c  -7.36  -4.04c
iter:  29 05:05:45   -49.654101c  -8.28c -4.26c
iter:  30 05:05:58   -49.654092c  -8.34c -4.27c -2.75c

Converged after 30 iterations.

Dipole moment: (0.000000, -0.000000, 0.194369) |e|*Ang

Energy contributions relative to reference atoms: (reference = -784034.728487)

Kinetic:        +43.256317
Potential:      -47.218838
External:        +0.000000
XC:             -45.334575
Entropy (-ST):   -0.198468
Local:           -0.257762
SIC:             +0.000000
--------------------------
Free energy:    -49.753326
Extrapolated:   -49.654092

Showing only first 2 kpts
 Kpt  Band  Eigenvalues  Occupancy
  0    25      0.09432    1.99997
  0    26      1.22250    0.85259
  0    27      1.51500    0.07669
  0    28      4.75450    0.00000

  1    25      0.23068    1.99987
  1    26      1.13864    1.26434
  1    27      1.50550    0.08401
  1    28      4.84634    0.00000


Fermi level: 1.19280

No gap
No difference between direct/indirect transitions

Forces in eV/Ang:
  0 Pb    0.00000    0.00000    0.03259
  1 Br    0.00000    0.00000   -0.09028
  2 Br    0.00000    0.00000   -0.28668
  3 Br    0.00000    0.00000    0.04756
  4 C     0.00000    0.00000    3.08436
  5 N     3.79914    0.00000   -1.37606
  6 N    -3.79914    0.00000   -1.37606
  7 H     0.00000    0.00000   -0.61259
  8 H    -0.03783   -0.97518    0.14451
  9 H    -0.03783    0.97518    0.14451
 10 H     0.03783   -0.97518    0.14451
 11 H     0.03783    0.97518    0.14451

System changes: positions 

Initializing position-dependent things.

Density initialized from wave functions
     .--------------.  
    /|              |  
   Br|              |  
  /  |              |  
 *   |  BrH         |  
 |   |H   C     H   |  
 |   H N      NH    |  
 Br  .--------------.  
 |  /              /   
 | /              /    
 |/              /     
 Pb-------------*      

Atomic positions and initial magnetic moments

Positions:
   0 Pb     0.000000    0.000000    0.002002    ( 0.0000,  0.0000,  0.0000)
   1 Br     2.995000    0.000000   -0.004806    ( 0.0000,  0.0000,  0.0000)
   2 Br     0.000000    2.995000   -0.001982    ( 0.0000,  0.0000,  0.0000)
   3 Br     0.000000    0.000000    2.996076    ( 0.0000,  0.0000,  0.0000)
   4 C      2.995000    2.995000    3.210099    ( 0.0000,  0.0000,  0.0000)
   5 N      1.592858    2.995000    2.767318    ( 0.0000,  0.0000,  0.0000)
   6 N      4.397142    2.995000    2.767318    ( 0.0000,  0.0000,  0.0000)
   7 H      2.995000    2.995000    4.337386    ( 0.0000,  0.0000,  0.0000)
   8 H      1.131800    3.925468    2.995972    ( 0.0000,  0.0000,  0.0000)
   9 H      1.131800    2.064532    2.995972    ( 0.0000,  0.0000,  0.0000)
  10 H      4.858200    3.925468    2.995972    ( 0.0000,  0.0000,  0.0000)
  11 H      4.858200    2.064532    2.995972    ( 0.0000,  0.0000,  0.0000)

Unit cell:
           periodic     x           y           z      points  spacing
  1. axis:    yes    5.990000    0.000000    0.000000    30     0.1997
  2. axis:    yes    0.000000    5.990000    0.000000    30     0.1997
  3. axis:    yes    0.000000    0.000000    5.990000    30     0.1997

  Lengths:   5.990000   5.990000   5.990000
  Angles:   90.000000  90.000000  90.000000

Effective grid spacing dv^(1/3) = 0.1997

     iter     time        total  log10-change:
                         energy   eigst   dens  force
iter:   1 05:06:11   -50.013311   -2.22
iter:   2 05:06:22   -49.991437   -3.31  -2.14
iter:   3 05:06:33   -49.971538   -3.66  -2.30
iter:   4 05:06:45   -49.987628   -3.98  -2.54
iter:   5 05:06:56   -49.975275   -4.10  -2.38
iter:   6 05:07:07   -49.970451   -4.59  -2.72
iter:   7 05:07:18   -49.970877   -5.25  -3.07
iter:   8 05:07:29   -49.969985   -5.52  -3.38
iter:   9 05:07:40   -49.971305   -5.52  -3.28
iter:  10 05:07:50   -49.970987   -6.65  -3.72
iter:  11 05:08:01   -49.970967   -7.47c -3.88
iter:  12 05:08:13   -49.970983c  -7.06  -3.92
iter:  13 05:08:27   -49.970974c  -7.96c -4.21c
iter:  14 05:08:40   -49.970986c  -8.39c -4.29c -2.05c

Converged after 14 iterations.

Dipole moment: (-0.000000, -0.000000, 0.403386) |e|*Ang

Energy contributions relative to reference atoms: (reference = -784034.728487)

Kinetic:        +42.890237
Potential:      -47.190128
External:        +0.000000
XC:             -45.321546
Entropy (-ST):   -0.184093
Local:           -0.257503
SIC:             +0.000000
--------------------------
Free energy:    -50.063032
Extrapolated:   -49.970986

Showing only first 2 kpts
 Kpt  Band  Eigenvalues  Occupancy
  0    25      0.10256    1.99994
  0    26      1.15149    0.96677
  0    27      1.49606    0.05793
  0    28      4.81861    0.00000

  1    25      0.23673    1.99977
  1    26      1.06733    1.36926
  1    27      1.48789    0.06271
  1    28      4.91528    0.00000


Fermi level: 1.14484

No gap
No difference between direct/indirect transitions

Forces in eV/Ang:
  0 Pb    0.00000    0.00000    0.04166
  1 Br    0.00000    0.00000   -0.10635
  2 Br    0.00000    0.00000   -0.33303
  3 Br    0.00000    0.00000    0.04777
  4 C     0.00000    0.00000    2.38664
  5 N     3.50508    0.00000   -1.01253
  6 N    -3.50508    0.00000   -1.01253
  7 H     0.00000    0.00000   -0.39780
  8 H     0.15104   -1.07744    0.12088
  9 H     0.15104    1.07744    0.12088
 10 H    -0.15104   -1.07744    0.12088
 11 H    -0.15104    1.07744    0.12088

System changes: positions 

Initializing position-dependent things.

Density initialized from wave functions
     .--------------.  
    /|              |  
   Br|              |  
  /  |              |  
 *   |  BrH         |  
 |   |H   C     H   |  
 |   H N      NH    |  
 Br  .--------------.  
 |  /              /   
 | /              /    
 |/              /     
 Pb-------------*      

Atomic positions and initial magnetic moments

Positions:
   0 Pb     0.000000    0.000000    0.005865    ( 0.0000,  0.0000,  0.0000)
   1 Br     2.995000    0.000000   -0.014729    ( 0.0000,  0.0000,  0.0000)
   2 Br     0.000000    2.995000   -0.029492    ( 0.0000,  0.0000,  0.0000)
   3 Br     0.000000    0.000000    2.999789    ( 0.0000,  0.0000,  0.0000)
   4 C      2.995000    2.995000    3.318254    ( 0.0000,  0.0000,  0.0000)
   5 N      1.771166    2.995000    2.676730    ( 0.0000,  0.0000,  0.0000)
   6 N      4.218834    2.995000    2.676730    ( 0.0000,  0.0000,  0.0000)
   7 H      2.995000    2.995000    4.391713    ( 0.0000,  0.0000,  0.0000)
   8 H      1.139402    3.829642    3.008329    ( 0.0000,  0.0000,  0.0000)
   9 H      1.139402    2.160358    3.008329    ( 0.0000,  0.0000,  0.0000)
  10 H      4.850598    3.829642    3.008329    ( 0.0000,  0.0000,  0.0000)
  11 H      4.850598    2.160358    3.008329    ( 0.0000,  0.0000,  0.0000)

Unit cell:
           periodic     x           y           z      points  spacing
  1. axis:    yes    5.990000    0.000000    0.000000    30     0.1997
  2. axis:    yes    0.000000    5.990000    0.000000    30     0.1997
  3. axis:    yes    0.000000    0.000000    5.990000    30     0.1997

  Lengths:   5.990000   5.990000   5.990000
  Angles:   90.000000  90.000000  90.000000

Effective grid spacing dv^(1/3) = 0.1997

     iter     time        total  log10-change:
                         energy   eigst   dens  force
iter:   1 05:08:54   -52.086712   -0.74
iter:   2 05:09:06   -51.902749   -1.97  -1.52
iter:   3 05:09:17   -51.351862   -1.55  -1.57
iter:   4 05:09:29   -51.362411   -2.87  -1.81
iter:   5 05:09:40   -51.332403   -3.53  -1.93
iter:   6 05:09:52   -51.322104   -2.92  -2.02
iter:   7 05:10:04   -51.329218   -3.82  -2.49
iter:   8 05:10:15   -51.319436   -3.76  -2.42
iter:   9 05:10:26   -51.321105   -4.63  -2.72
iter:  10 05:10:36   -51.320689   -4.67  -2.96
iter:  11 05:10:48   -51.320220   -4.69  -3.00
iter:  12 05:10:59   -51.320388   -6.16  -3.47
iter:  13 05:11:10   -51.320430   -6.76  -3.63
iter:  14 05:11:21   -51.320440c  -7.04  -3.69
iter:  15 05:11:31   -51.320474c  -7.31  -3.79
iter:  16 05:11:43   -51.320392   -6.80  -3.89
iter:  17 05:11:55   -51.320375   -7.75c -3.96
iter:  18 05:12:06   -51.320370c  -7.81c -4.00
iter:  19 05:12:17   -51.320394c  -6.88  -4.04c
iter:  20 05:12:28   -51.320425   -7.28  -4.25c
iter:  21 05:12:40   -51.320421c  -8.84c -4.58c
iter:  22 05:12:54   -51.320394c  -8.10c -4.63c -2.49c

Converged after 22 iterations.

Dipole moment: (0.000000, -0.000000, 2.017828) |e|*Ang

Energy contributions relative to reference atoms: (reference = -784034.728487)

Kinetic:        +48.543413
Potential:      -52.758731
External:        +0.000000
XC:             -46.834298
Entropy (-ST):   -0.058793
Local:           -0.241382
SIC:             +0.000000
--------------------------
Free energy:    -51.349791
Extrapolated:   -51.320394

Showing only first 2 kpts
 Kpt  Band  Eigenvalues  Occupancy
  0    25      0.17156    1.99962
  0    26      0.64891    1.95650
  0    27      1.66685    0.00341
  0    28      4.86311    0.00000

  1    25      0.26336    1.99906
  1    26      0.57688    1.97859
  1    27      1.66765    0.00338
  1    28      4.98219    0.00000


Fermi level: 1.02953

No gap
No difference between direct/indirect transitions

Forces in eV/Ang:
  0 Pb    0.00000    0.00000    0.04507
  1 Br    0.00000    0.00000   -0.16780
  2 Br    0.00000    0.00000   -0.50202
  3 Br    0.00000    0.00000    0.04583
  4 C     0.00000    0.00000    0.13409
  5 N    -0.50086    0.00000   -0.16888
  6 N     0.50086    0.00000   -0.16888
  7 H     0.00000    0.00000    1.27010
  8 H     1.16373   -0.95404   -0.13676
  9 H     1.16373    0.95404   -0.13676
 10 H    -1.16373   -0.95404   -0.13676
 11 H    -1.16373    0.95404   -0.13676

System changes: positions 

Initializing position-dependent things.

Density initialized from wave functions
     .--------------.  
    /|              |  
   Br|              |  
  /  |              |  
 *   |  BrH         |  
 |   |H   C     H   |  
 |   H  N    N H    |  
 Br  .--------------.  
 |  /              /   
 | /              /    
 |/              /     
 Pb-------------*      

Atomic positions and initial magnetic moments

Positions:
   0 Pb     0.000000    0.000000    0.007669    ( 0.0000,  0.0000,  0.0000)
   1 Br     2.995000    0.000000   -0.020279    ( 0.0000,  0.0000,  0.0000)
   2 Br     0.000000    2.995000   -0.045159    ( 0.0000,  0.0000,  0.0000)
   3 Br     0.000000    0.000000    3.001598    ( 0.0000,  0.0000,  0.0000)
   4 C      2.995000    2.995000    3.363115    ( 0.0000,  0.0000,  0.0000)
   5 N      1.809622    2.995000    2.639669    ( 0.0000,  0.0000,  0.0000)
   6 N      4.180378    2.995000    2.639669    ( 0.0000,  0.0000,  0.0000)
   7 H      2.995000    2.995000    4.433352    ( 0.0000,  0.0000,  0.0000)
   8 H      1.157677    3.790469    3.009368    ( 0.0000,  0.0000,  0.0000)
   9 H      1.157677    2.199531    3.009368    ( 0.0000,  0.0000,  0.0000)
  10 H      4.832323    3.790469    3.009368    ( 0.0000,  0.0000,  0.0000)
  11 H      4.832323    2.199531    3.009368    ( 0.0000,  0.0000,  0.0000)

Unit cell:
           periodic     x           y           z      points  spacing
  1. axis:    yes    5.990000    0.000000    0.000000    30     0.1997
  2. axis:    yes    0.000000    5.990000    0.000000    30     0.1997
  3. axis:    yes    0.000000    0.000000    5.990000    30     0.1997

  Lengths:   5.990000   5.990000   5.990000
  Angles:   90.000000  90.000000  90.000000

Effective grid spacing dv^(1/3) = 0.1997

     iter     time        total  log10-change:
                         energy   eigst   dens  force
iter:   1 05:13:08   -51.511768   -1.58
iter:   2 05:13:19   -51.512189   -2.84  -2.14
iter:   3 05:13:30   -51.503173   -3.09  -2.17
iter:   4 05:13:41   -51.500750   -4.70  -2.44
iter:   5 05:13:53   -51.495240   -4.13  -2.49
iter:   6 05:14:04   -51.498054   -4.13  -2.70
iter:   7 05:14:15   -51.496567   -4.33  -2.85
iter:   8 05:14:26   -51.496581   -5.45  -3.27
iter:   9 05:14:37   -51.496728   -5.03  -3.36
iter:  10 05:14:48   -51.496527   -5.27  -3.42
iter:  11 05:14:59   -51.496570   -6.51  -3.87
iter:  12 05:15:11   -51.496603   -7.33  -3.92
iter:  13 05:15:22   -51.496582c  -7.19  -4.01c
iter:  14 05:15:35   -51.496571c  -7.66c -4.16c
iter:  15 05:15:47   -51.496551c  -7.90c -4.24c -2.04c

Converged after 15 iterations.

Dipole moment: (0.000000, -0.000000, 2.921458) |e|*Ang

Energy contributions relative to reference atoms: (reference = -784034.728487)

Kinetic:        +49.971323
Potential:      -54.307714
External:        +0.000000
XC:             -46.892714
Entropy (-ST):   -0.041073
Local:           -0.246910
SIC:             +0.000000
--------------------------
Free energy:    -51.517088
Extrapolated:   -51.496551

Showing only first 2 kpts
 Kpt  Band  Eigenvalues  Occupancy
  0    25      0.14235    1.99977
  0    26      0.40572    1.99684
  0    27      1.68181    0.00363
  0    28      4.89767    0.00000

  1    25      0.22296    1.99949
  1    26      0.33852    1.99839
  1    27      1.68507    0.00351
  1    28      5.02311    0.00000


Fermi level: 1.05070

No gap
No difference between direct/indirect transitions

Forces in eV/Ang:
  0 Pb    0.00000    0.00000    0.04814
  1 Br    0.00000    0.00000   -0.18455
  2 Br    0.00000    0.00000   -0.50701
  3 Br    0.00000    0.00000    0.04301
  4 C     0.00000    0.00000   -1.47824
  5 N    -0.63035    0.00000    0.75401
  6 N     0.63035    0.00000    0.75401
  7 H     0.00000    0.00000    1.29681
  8 H     1.03803   -0.54437   -0.19167
  9 H     1.03803    0.54437   -0.19167
 10 H    -1.03803   -0.54437   -0.19167
 11 H    -1.03803    0.54437   -0.19167

System changes: positions 

Initializing position-dependent things.

Density initialized from wave functions
     .--------------.  
    /|              |  
   Br|              |  
  /  |              |  
 *   |  BrH         |  
 |   |H   C     H   |  
 |   H  N    N H    |  
 Br  .--------------.  
 |  /              /   
 | /              /    
 |/              /     
 Pb-------------*      

Atomic positions and initial magnetic moments

Positions:
   0 Pb     0.000000    0.000000    0.009189    ( 0.0000,  0.0000,  0.0000)
   1 Br     2.995000    0.000000   -0.026073    ( 0.0000,  0.0000,  0.0000)
   2 Br     0.000000    2.995000   -0.062615    ( 0.0000,  0.0000,  0.0000)
   3 Br     0.000000    0.000000    3.003321    ( 0.0000,  0.0000,  0.0000)
   4 C      2.995000    2.995000    3.357150    ( 0.0000,  0.0000,  0.0000)
   5 N      1.837952    2.995000    2.649214    ( 0.0000,  0.0000,  0.0000)
   6 N      4.152048    2.995000    2.649214    ( 0.0000,  0.0000,  0.0000)
   7 H      2.995000    2.995000    4.450032    ( 0.0000,  0.0000,  0.0000)
   8 H      1.193018    3.756116    3.006147    ( 0.0000,  0.0000,  0.0000)
   9 H      1.193018    2.233884    3.006147    ( 0.0000,  0.0000,  0.0000)
  10 H      4.796982    3.756116    3.006147    ( 0.0000,  0.0000,  0.0000)
  11 H      4.796982    2.233884    3.006147    ( 0.0000,  0.0000,  0.0000)

Unit cell:
           periodic     x           y           z      points  spacing
  1. axis:    yes    5.990000    0.000000    0.000000    30     0.1997
  2. axis:    yes    0.000000    5.990000    0.000000    30     0.1997
  3. axis:    yes    0.000000    0.000000    5.990000    30     0.1997

  Lengths:   5.990000   5.990000   5.990000
  Angles:   90.000000  90.000000  90.000000

Effective grid spacing dv^(1/3) = 0.1997

     iter     time        total  log10-change:
                         energy   eigst   dens  force
iter:   1 05:16:02   -51.795763   -1.97
iter:   2 05:16:14   -51.755713   -3.35  -1.88
iter:   3 05:16:25   -51.621363   -2.34  -1.92
iter:   4 05:16:36   -51.620804   -4.08  -2.21
iter:   5 05:16:47   -51.620969   -4.68  -2.34
iter:   6 05:16:58   -51.612702   -3.51  -2.41
iter:   7 05:17:10   -51.617765   -4.05  -2.70
iter:   8 05:17:21   -51.614066   -4.51  -2.75
iter:   9 05:17:32   -51.612931   -5.01  -3.21
iter:  10 05:17:42   -51.613817   -5.62  -3.23
iter:  11 05:17:52   -51.613563   -6.10  -3.61
iter:  12 05:18:04   -51.613529   -6.46  -3.76
iter:  13 05:18:15   -51.613522c  -6.96  -4.07c
iter:  14 05:18:28   -51.613511c  -7.96c -4.32c
iter:  15 05:18:41   -51.613521c  -7.54c -4.34c -1.97
iter:  16 05:18:53   -51.613535c  -8.44c -4.68c -2.56c

Converged after 16 iterations.

Dipole moment: (0.000000, -0.000000, 3.876467) |e|*Ang

Energy contributions relative to reference atoms: (reference = -784034.728487)

Kinetic:        +57.541276
Potential:      -60.068472
External:        +0.000000
XC:             -48.819096
Entropy (-ST):   -0.036770
Local:           -0.248857
SIC:             +0.000000
--------------------------
Free energy:    -51.631920
Extrapolated:   -51.613535

Showing only first 2 kpts
 Kpt  Band  Eigenvalues  Occupancy
  0    25      0.12065    1.99988
  0    26      0.31139    1.99917
  0    27      1.70969    0.00405
  0    28      5.02720    0.00000

  1    25      0.19349    1.99974
  1    26      0.25804    1.99951
  1    27      1.71318    0.00391
  1    28      5.15507    0.00000


Fermi level: 1.08959

No gap
No difference between direct/indirect transitions

Forces in eV/Ang:
  0 Pb    0.00000    0.00000    0.03474
  1 Br    0.00000    0.00000   -0.18142
  2 Br    0.00000    0.00000   -0.47213
  3 Br    0.00000    0.00000    0.03847
  4 C     0.00000    0.00000    0.38316
  5 N    -0.78741    0.00000   -0.39789
  6 N     0.78741    0.00000   -0.39789
  7 H     0.00000    0.00000    0.55421
  8 H     0.44680    0.33906    0.09160
  9 H     0.44680   -0.33906    0.09160
 10 H    -0.44680    0.33906    0.09160
 11 H    -0.44680   -0.33906    0.09160

System changes: positions 

Initializing position-dependent things.

Density initialized from wave functions
     .--------------.  
    /|              |  
   Br|              |  
  /  |              |  
 *   |  BrH         |  
 |   | H  C    H    |  
 |   |H N    NH     |  
 Br  .--------------.  
 |  /              /   
 | /              /    
 |/              /     
 Pb-------------*      

Atomic positions and initial magnetic moments

Positions:
   0 Pb     0.000000    0.000000    0.009925    ( 0.0000,  0.0000,  0.0000)
   1 Br     2.995000    0.000000   -0.029603    ( 0.0000,  0.0000,  0.0000)
   2 Br     0.000000    2.995000   -0.071640    ( 0.0000,  0.0000,  0.0000)
   3 Br     0.000000    0.000000    3.004076    ( 0.0000,  0.0000,  0.0000)
   4 C      2.995000    2.995000    3.364783    ( 0.0000,  0.0000,  0.0000)
   5 N      1.816460    2.995000    2.640904    ( 0.0000,  0.0000,  0.0000)
   6 N      4.173540    2.995000    2.640904    ( 0.0000,  0.0000,  0.0000)
   7 H      2.995000    2.995000    4.471887    ( 0.0000,  0.0000,  0.0000)
   8 H      1.203156    3.762242    3.005475    ( 0.0000,  0.0000,  0.0000)
   9 H      1.203156    2.227758    3.005475    ( 0.0000,  0.0000,  0.0000)
  10 H      4.786844    3.762242    3.005475    ( 0.0000,  0.0000,  0.0000)
  11 H      4.786844    2.227758    3.005475    ( 0.0000,  0.0000,  0.0000)

Unit cell:
           periodic     x           y           z      points  spacing
  1. axis:    yes    5.990000    0.000000    0.000000    30     0.1997
  2. axis:    yes    0.000000    5.990000    0.000000    30     0.1997
  3. axis:    yes    0.000000    0.000000    5.990000    30     0.1997

  Lengths:   5.990000   5.990000   5.990000
  Angles:   90.000000  90.000000  90.000000

Effective grid spacing dv^(1/3) = 0.1997

     iter     time        total  log10-change:
                         energy   eigst   dens  force
iter:   1 05:19:08   -51.684369   -2.15
iter:   2 05:19:20   -51.662161   -3.49  -1.96
iter:   3 05:19:31   -51.648943   -3.48  -2.12
iter:   4 05:19:42   -51.652496   -3.65  -2.58
iter:   5 05:19:53   -51.650131   -3.89  -2.62
iter:   6 05:20:04   -51.647245   -4.85  -3.01
iter:   7 05:20:15   -51.646937   -4.73  -3.06
iter:   8 05:20:25   -51.648270   -5.01  -3.09
iter:   9 05:20:36   -51.648240   -6.41  -3.58
iter:  10 05:20:47   -51.648122   -5.91  -3.63
iter:  11 05:20:59   -51.648250   -6.33  -3.82
iter:  12 05:21:11   -51.648211   -7.68c -4.12c
iter:  13 05:21:21   -51.648175   -7.34  -4.16c
iter:  14 05:21:34   -51.648204c  -7.66c -4.48c
iter:  15 05:21:46   -51.648204c  -8.58c -4.67c -2.43c

Converged after 15 iterations.

Dipole moment: (0.000000, -0.000000, 4.400095) |e|*Ang

Energy contributions relative to reference atoms: (reference = -784034.728487)

Kinetic:        +55.632714
Potential:      -58.572672
External:        +0.000000
XC:             -48.433451
Entropy (-ST):   -0.043951
Local:           -0.252819
SIC:             +0.000000
--------------------------
Free energy:    -51.670180
Extrapolated:   -51.648204

Showing only first 2 kpts
 Kpt  Band  Eigenvalues  Occupancy
  0    25      0.10792    1.99981
  0    26      0.33335    1.99821
  0    27      1.59872    0.00712
  0    28      5.15640    0.00000

  1    25      0.18371    1.99960
  1    26      0.27673    1.99899
  1    27      1.60174    0.00691
  1    28      5.28053    0.00000


Fermi level: 1.03533

No gap
No difference between direct/indirect transitions

Forces in eV/Ang:
  0 Pb    0.00000    0.00000    0.03913
  1 Br    0.00000    0.00000   -0.18674
  2 Br    0.00000    0.00000   -0.46457
  3 Br    0.00000    0.00000    0.03415
  4 C     0.00000    0.00000   -0.32387
  5 N     0.66974    0.00000    0.00839
  6 N    -0.66974    0.00000    0.00839
  7 H     0.00000    0.00000    0.06946
  8 H     0.12291    0.52152    0.18750
  9 H     0.12291   -0.52152    0.18750
 10 H    -0.12291    0.52152    0.18750
 11 H    -0.12291   -0.52152    0.18750

System changes: positions 

Initializing position-dependent things.

Density initialized from wave functions
     .--------------.  
    /|              |  
   Br|              |  
  /  |              |  
 *   |  BrH         |  
 |   | H  C    H    |  
 |   |H N    NH     |  
 Br  .--------------.  
 |  /              /   
 | /              /    
 |/              /     
 Pb-------------*      

Atomic positions and initial magnetic moments

Positions:
   0 Pb     0.000000    0.000000    0.010579    ( 0.0000,  0.0000,  0.0000)
   1 Br     2.995000    0.000000   -0.032854    ( 0.0000,  0.0000,  0.0000)
   2 Br     0.000000    2.995000   -0.079808    ( 0.0000,  0.0000,  0.0000)
   3 Br     0.000000    0.000000    3.004676    ( 0.0000,  0.0000,  0.0000)
   4 C      2.995000    2.995000    3.360095    ( 0.0000,  0.0000,  0.0000)
   5 N      1.818197    2.995000    2.640307    ( 0.0000,  0.0000,  0.0000)
   6 N      4.171803    2.995000    2.640307    ( 0.0000,  0.0000,  0.0000)
   7 H      2.995000    2.995000    4.476298    ( 0.0000,  0.0000,  0.0000)
   8 H      1.207388    3.771141    3.008072    ( 0.0000,  0.0000,  0.0000)
   9 H      1.207388    2.218859    3.008072    ( 0.0000,  0.0000,  0.0000)
  10 H      4.782612    3.771141    3.008072    ( 0.0000,  0.0000,  0.0000)
  11 H      4.782612    2.218859    3.008072    ( 0.0000,  0.0000,  0.0000)

Unit cell:
           periodic     x           y           z      points  spacing
  1. axis:    yes    5.990000    0.000000    0.000000    30     0.1997
  2. axis:    yes    0.000000    5.990000    0.000000    30     0.1997
  3. axis:    yes    0.000000    0.000000    5.990000    30     0.1997

  Lengths:   5.990000   5.990000   5.990000
  Angles:   90.000000  90.000000  90.000000

Effective grid spacing dv^(1/3) = 0.1997

     iter     time        total  log10-change:
                         energy   eigst   dens  force
iter:   1 05:22:02   -51.675877   -3.27
iter:   2 05:22:13   -51.675713   -4.65  -2.65
iter:   3 05:22:23   -51.675608   -4.34  -2.69
iter:   4 05:22:34   -51.675149   -5.35  -3.04
iter:   5 05:22:45   -51.674613   -4.79  -3.14
iter:   6 05:22:56   -51.674888   -5.47  -3.45
iter:   7 05:23:07   -51.674733   -5.60  -3.45
iter:   8 05:23:18   -51.674709   -7.12  -3.85
iter:   9 05:23:29   -51.674679c  -6.40  -3.89
iter:  10 05:23:41   -51.674687c  -6.61  -4.03c
iter:  11 05:23:54   -51.674694c  -8.08c -4.38c
iter:  12 05:24:07   -51.674705c  -8.77c -4.44c -2.85c

Converged after 12 iterations.

Dipole moment: (0.000000, -0.000000, 4.860106) |e|*Ang

Energy contributions relative to reference atoms: (reference = -784034.728487)

Kinetic:        +54.929737
Potential:      -58.105373
External:        +0.000000
XC:             -48.224933
Entropy (-ST):   -0.042012
Local:           -0.253131
SIC:             +0.000000
--------------------------
Free energy:    -51.695711
Extrapolated:   -51.674705

Showing only first 2 kpts
 Kpt  Band  Eigenvalues  Occupancy
  0    25      0.11349    1.99983
  0    26      0.33857    1.99839
  0    27      1.62790    0.00621
  0    28      5.14016    0.00000

  1    25      0.18931    1.99964
  1    26      0.28324    1.99907
  1    27      1.63096    0.00602
  1    28      5.26333    0.00000


Fermi level: 1.05069

No gap
No difference between direct/indirect transitions

Forces in eV/Ang:
  0 Pb    0.00000    0.00000    0.03559
  1 Br    0.00000    0.00000   -0.18140
  2 Br    0.00000    0.00000   -0.45280
  3 Br    0.00000    0.00000    0.03395
  4 C     0.00000    0.00000    0.06225
  5 N     0.36212    0.00000    0.07257
  6 N    -0.36212    0.00000    0.07257
  7 H     0.00000    0.00000   -0.18676
  8 H     0.20406    0.30211    0.11996
  9 H     0.20406   -0.30211    0.11996
 10 H    -0.20406    0.30211    0.11996
 11 H    -0.20406   -0.30211    0.11996

System changes: positions 

Initializing position-dependent things.

Density initialized from wave functions
     .--------------.  
    /|              |  
   Br|              |  
  /  |              |  
 *   |  BrH         |  
 |   | H  C    H    |  
 |   |H N    NH     |  
 Br  .--------------.  
 |  /              /   
 | /              /    
 |/              /     
 Pb-------------*      

Atomic positions and initial magnetic moments

Positions:
   0 Pb     0.000000    0.000000    0.013369    ( 0.0000,  0.0000,  0.0000)
   1 Br     2.995000    0.000000   -0.046753    ( 0.0000,  0.0000,  0.0000)
   2 Br     0.000000    2.995000   -0.115394    ( 0.0000,  0.0000,  0.0000)
   3 Br     0.000000    0.000000    3.007407    ( 0.0000,  0.0000,  0.0000)
   4 C      2.995000    2.995000    3.355021    ( 0.0000,  0.0000,  0.0000)
   5 N      1.826564    2.995000    2.642703    ( 0.0000,  0.0000,  0.0000)
   6 N      4.163436    2.995000    2.642703    ( 0.0000,  0.0000,  0.0000)
   7 H      2.995000    2.995000    4.483630    ( 0.0000,  0.0000,  0.0000)
   8 H      1.233191    3.790418    3.015913    ( 0.0000,  0.0000,  0.0000)
   9 H      1.233191    2.199582    3.015913    ( 0.0000,  0.0000,  0.0000)
  10 H      4.756809    3.790418    3.015913    ( 0.0000,  0.0000,  0.0000)
  11 H      4.756809    2.199582    3.015913    ( 0.0000,  0.0000,  0.0000)

Unit cell:
           periodic     x           y           z      points  spacing
  1. axis:    yes    5.990000    0.000000    0.000000    30     0.1997
  2. axis:    yes    0.000000    5.990000    0.000000    30     0.1997
  3. axis:    yes    0.000000    0.000000    5.990000    30     0.1997

  Lengths:   5.990000   5.990000   5.990000
  Angles:   90.000000  90.000000  90.000000

Effective grid spacing dv^(1/3) = 0.1997

     iter     time        total  log10-change:
                         energy   eigst   dens  force
iter:   1 05:24:23   -51.744420   -2.38
iter:   2 05:24:33   -51.740159   -3.84  -2.29
iter:   3 05:24:45   -51.724736   -3.48  -2.33
iter:   4 05:24:55   -51.728167   -4.71  -2.59
iter:   5 05:25:07   -51.724559   -3.68  -2.62
iter:   6 05:25:18   -51.724694   -4.79  -3.07
iter:   7 05:25:28   -51.724542   -4.83  -3.10
iter:   8 05:25:39   -51.724405   -5.59  -3.45
iter:   9 05:25:51   -51.724423   -5.58  -3.48
iter:  10 05:26:02   -51.724438c  -6.66  -3.93
iter:  11 05:26:15   -51.724467c  -7.53c -4.02c
iter:  12 05:26:28   -51.724491c  -8.15c -4.11c -2.02c

Converged after 12 iterations.

Dipole moment: (0.000000, -0.000000, 6.777416) |e|*Ang

Energy contributions relative to reference atoms: (reference = -784034.728487)

Kinetic:        +55.230059
Potential:      -58.449406
External:        +0.000000
XC:             -48.233559
Entropy (-ST):   -0.037461
Local:           -0.252854
SIC:             +0.000000
--------------------------
Free energy:    -51.743221
Extrapolated:   -51.724491

Showing only first 2 kpts
 Kpt  Band  Eigenvalues  Occupancy
  0    25      0.11569    1.99988
  0    26      0.33392    1.99890
  0    27      1.68431    0.00493
  0    28      5.15011    0.00000

  1    25      0.19152    1.99973
  1    26      0.28137    1.99935
  1    27      1.68757    0.00478
  1    28      5.27159    0.00000


Fermi level: 1.08406

No gap
No difference between direct/indirect transitions

Forces in eV/Ang:
  0 Pb    0.00000    0.00000    0.02858
  1 Br    0.00000    0.00000   -0.17576
  2 Br    0.00000    0.00000   -0.39520
  3 Br    0.00000    0.00000    0.02634
  4 C     0.00000    0.00000    0.68067
  5 N    -0.13037    0.00000    0.02848
  6 N     0.13037    0.00000    0.02848
  7 H     0.00000    0.00000   -0.49748
  8 H     0.15196   -0.01805    0.04859
  9 H     0.15196    0.01805    0.04859
 10 H    -0.15196   -0.01805    0.04859
 11 H    -0.15196    0.01805    0.04859

System changes: positions 

Initializing position-dependent things.

Density initialized from wave functions
     .--------------.  
    /|              |  
   Br|              |  
  /  |              |  
 *   |  BrH         |  
 |   | H  C    H    |  
 |   |H N    NH     |  
 Br  .--------------.  
 |  /              /   
 | /              /    
 |/              /     
 Pb-------------*      

Atomic positions and initial magnetic moments

Positions:
   0 Pb     0.000000    0.000000    0.015790    ( 0.0000,  0.0000,  0.0000)
   1 Br     2.995000    0.000000   -0.059137    ( 0.0000,  0.0000,  0.0000)
   2 Br     0.000000    2.995000   -0.146117    ( 0.0000,  0.0000,  0.0000)
   3 Br     0.000000    0.000000    3.009708    ( 0.0000,  0.0000,  0.0000)
   4 C      2.995000    2.995000    3.359964    ( 0.0000,  0.0000,  0.0000)
   5 N      1.832278    2.995000    2.644473    ( 0.0000,  0.0000,  0.0000)
   6 N      4.157722    2.995000    2.644473    ( 0.0000,  0.0000,  0.0000)
   7 H      2.995000    2.995000    4.484192    ( 0.0000,  0.0000,  0.0000)
   8 H      1.253729    3.800216    3.021957    ( 0.0000,  0.0000,  0.0000)
   9 H      1.253729    2.189784    3.021957    ( 0.0000,  0.0000,  0.0000)
  10 H      4.736271    3.800216    3.021957    ( 0.0000,  0.0000,  0.0000)
  11 H      4.736271    2.189784    3.021957    ( 0.0000,  0.0000,  0.0000)

Unit cell:
           periodic     x           y           z      points  spacing
  1. axis:    yes    5.990000    0.000000    0.000000    30     0.1997
  2. axis:    yes    0.000000    5.990000    0.000000    30     0.1997
  3. axis:    yes    0.000000    0.000000    5.990000    30     0.1997

  Lengths:   5.990000   5.990000   5.990000
  Angles:   90.000000  90.000000  90.000000

Effective grid spacing dv^(1/3) = 0.1997

     iter     time        total  log10-change:
                         energy   eigst   dens  force
iter:   1 05:26:43   -51.756922   -2.76
iter:   2 05:26:55   -51.754096   -4.27  -2.42
iter:   3 05:27:06   -51.745418   -3.90  -2.48
iter:   4 05:27:17   -51.747645   -5.06  -2.79
iter:   5 05:27:28   -51.745124   -4.12  -2.78
iter:   6 05:27:39   -51.745470   -5.55  -3.19
iter:   7 05:27:50   -51.745304   -5.53  -3.33
iter:   8 05:28:01   -51.745282   -6.11  -3.64
iter:   9 05:28:11   -51.745284c  -6.64  -3.63
iter:  10 05:28:22   -51.745294c  -6.27  -3.85
iter:  11 05:28:35   -51.745300c  -7.59c -4.31c
iter:  12 05:28:48   -51.745310c  -8.37c -4.35c -2.36c

Converged after 12 iterations.

Dipole moment: (0.000000, -0.000000, 8.321950) |e|*Ang

Energy contributions relative to reference atoms: (reference = -784034.728487)

Kinetic:        +56.000905
Potential:      -59.096491
External:        +0.000000
XC:             -48.380036
Entropy (-ST):   -0.035296
Local:           -0.252040
SIC:             +0.000000
--------------------------
Free energy:    -51.762958
Extrapolated:   -51.745310

Showing only first 2 kpts
 Kpt  Band  Eigenvalues  Occupancy
  0    25      0.10971    1.99990
  0    26      0.32072    1.99914
  0    27      1.70079    0.00472
  0    28      5.17101    0.00000

  1    25      0.18588    1.99978
  1    26      0.26806    1.99949
  1    27      1.70431    0.00455
  1    28      5.29250    0.00000


Fermi level: 1.09602

No gap
No difference between direct/indirect transitions

Forces in eV/Ang:
  0 Pb    0.00000    0.00000    0.02296
  1 Br    0.00000    0.00000   -0.17678
  2 Br    0.00000    0.00000   -0.34301
  3 Br    0.00000    0.00000    0.02015
  4 C     0.00000    0.00000    0.51317
  5 N    -0.22405    0.00000    0.06169
  6 N     0.22405    0.00000    0.06169
  7 H     0.00000    0.00000   -0.37347
  8 H     0.02650   -0.13034    0.03378
  9 H     0.02650    0.13034    0.03378
 10 H    -0.02650   -0.13034    0.03378
 11 H    -0.02650    0.13034    0.03378

System changes: positions 

Initializing position-dependent things.

Density initialized from wave functions
     .--------------.  
    /|              |  
   Br|              |  
  /  |              |  
 *   |  BrH         |  
 |   | H  C    H    |  
 |   |H N    NH     |  
 Br  .--------------.  
 |  /              /   
 | /              /    
 |/              /     
 Pb-------------*      

Atomic positions and initial magnetic moments

Positions:
   0 Pb     0.000000    0.000000    0.017588    ( 0.0000,  0.0000,  0.0000)
   1 Br     2.995000    0.000000   -0.069359    ( 0.0000,  0.0000,  0.0000)
   2 Br     0.000000    2.995000   -0.169625    ( 0.0000,  0.0000,  0.0000)
   3 Br     0.000000    0.000000    3.011367    ( 0.0000,  0.0000,  0.0000)
   4 C      2.995000    2.995000    3.366926    ( 0.0000,  0.0000,  0.0000)
   5 N      1.834862    2.995000    2.647332    ( 0.0000,  0.0000,  0.0000)
   6 N      4.155138    2.995000    2.647332    ( 0.0000,  0.0000,  0.0000)
   7 H      2.995000    2.995000    4.480045    ( 0.0000,  0.0000,  0.0000)
   8 H      1.265418    3.803256    3.026314    ( 0.0000,  0.0000,  0.0000)
   9 H      1.265418    2.186744    3.026314    ( 0.0000,  0.0000,  0.0000)
  10 H      4.724582    3.803256    3.026314    ( 0.0000,  0.0000,  0.0000)
  11 H      4.724582    2.186744    3.026314    ( 0.0000,  0.0000,  0.0000)

Unit cell:
           periodic     x           y           z      points  spacing
  1. axis:    yes    5.990000    0.000000    0.000000    30     0.1997
  2. axis:    yes    0.000000    5.990000    0.000000    30     0.1997
  3. axis:    yes    0.000000    0.000000    5.990000    30     0.1997

  Lengths:   5.990000   5.990000   5.990000
  Angles:   90.000000  90.000000  90.000000

Effective grid spacing dv^(1/3) = 0.1997

     iter     time        total  log10-change:
                         energy   eigst   dens  force
iter:   1 05:29:03   -51.764569   -3.13
iter:   2 05:29:14   -51.762251   -4.53  -2.52
iter:   3 05:29:24   -51.755454   -4.13  -2.58
iter:   4 05:29:35   -51.757041   -5.33  -2.97
iter:   5 05:29:47   -51.755146   -4.52  -2.92
iter:   6 05:29:58   -51.755467   -5.99  -3.35
iter:   7 05:30:09   -51.755269   -5.68  -3.45
iter:   8 05:30:19   -51.755269   -6.22  -3.73
iter:   9 05:30:32   -51.755266c  -6.84  -3.86
iter:  10 05:30:43   -51.755290c  -6.54  -3.89
iter:  11 05:30:55   -51.755291c  -8.07c -4.44c
iter:  12 05:31:08   -51.755294c  -8.27c -4.51c -2.28c

Converged after 12 iterations.

Dipole moment: (0.000000, -0.000000, 9.441612) |e|*Ang

Energy contributions relative to reference atoms: (reference = -784034.728487)

Kinetic:        +56.855558
Potential:      -59.758436
External:        +0.000000
XC:             -48.583902
Entropy (-ST):   -0.034615
Local:           -0.251206
SIC:             +0.000000
--------------------------
Free energy:    -51.772601
Extrapolated:   -51.755294

Showing only first 2 kpts
 Kpt  Band  Eigenvalues  Occupancy
  0    25      0.10070    1.99990
  0    26      0.31065    1.99921
  0    27      1.69604    0.00484
  0    28      5.19270    0.00000

  1    25      0.17738    1.99979
  1    26      0.25631    1.99954
  1    27      1.69971    0.00467
  1    28      5.31465    0.00000


Fermi level: 1.09390

No gap
No difference between direct/indirect transitions

Forces in eV/Ang:
  0 Pb    0.00000    0.00000    0.02159
  1 Br    0.00000    0.00000   -0.17831
  2 Br    0.00000    0.00000   -0.29959
  3 Br    0.00000    0.00000    0.01419
  4 C     0.00000    0.00000    0.09975
  5 N    -0.15136    0.00000    0.06366
  6 N     0.15136    0.00000    0.06366
  7 H     0.00000    0.00000   -0.06429
  8 H    -0.08672   -0.12127    0.05155
  9 H    -0.08672    0.12127    0.05155
 10 H     0.08672   -0.12127    0.05155
 11 H     0.08672    0.12127    0.05155

System changes: positions 

Initializing position-dependent things.

Density initialized from wave functions
     .--------------.  
    /|              |  
   Br|              |  
  /  |              |  
 *   |  BrH         |  
 |   | H  C    H    |  
 |   |H N    NH     |  
 Br  .--------------.  
 |  /              /   
 | /              /    
 |/              /     
 Pb-------------*      

Atomic positions and initial magnetic moments

Positions:
   0 Pb     0.000000    0.000000    0.018854    ( 0.0000,  0.0000,  0.0000)
   1 Br     2.995000    0.000000   -0.077601    ( 0.0000,  0.0000,  0.0000)
   2 Br     0.000000    2.995000   -0.186355    ( 0.0000,  0.0000,  0.0000)
   3 Br     0.000000    0.000000    3.012409    ( 0.0000,  0.0000,  0.0000)
   4 C      2.995000    2.995000    3.371657    ( 0.0000,  0.0000,  0.0000)
   5 N      1.834907    2.995000    2.649690    ( 0.0000,  0.0000,  0.0000)
   6 N      4.155093    2.995000    2.649690    ( 0.0000,  0.0000,  0.0000)
   7 H      2.995000    2.995000    4.477091    ( 0.0000,  0.0000,  0.0000)
   8 H      1.268651    3.802527    3.029506    ( 0.0000,  0.0000,  0.0000)
   9 H      1.268651    2.187473    3.029506    ( 0.0000,  0.0000,  0.0000)
  10 H      4.721349    3.802527    3.029506    ( 0.0000,  0.0000,  0.0000)
  11 H      4.721349    2.187473    3.029506    ( 0.0000,  0.0000,  0.0000)

Unit cell:
           periodic     x           y           z      points  spacing
  1. axis:    yes    5.990000    0.000000    0.000000    30     0.1997
  2. axis:    yes    0.000000    5.990000    0.000000    30     0.1997
  3. axis:    yes    0.000000    0.000000    5.990000    30     0.1997

  Lengths:   5.990000   5.990000   5.990000
  Angles:   90.000000  90.000000  90.000000

Effective grid spacing dv^(1/3) = 0.1997

     iter     time        total  log10-change:
                         energy   eigst   dens  force
iter:   1 05:31:24   -51.764943   -3.62
iter:   2 05:31:35   -51.764049   -4.95  -2.78
iter:   3 05:31:45   -51.761227   -4.72  -2.84
iter:   4 05:31:56   -51.761731   -6.07  -3.24
iter:   5 05:32:08   -51.761229   -5.12  -3.25
iter:   6 05:32:19   -51.761160   -6.54  -3.65
iter:   7 05:32:30   -51.761128   -6.10  -3.70
iter:   8 05:32:40   -51.761115c  -6.83  -3.94
iter:   9 05:32:51   -51.761137c  -7.24  -4.11c
iter:  10 05:33:05   -51.761133c  -7.43c -4.24c
iter:  11 05:33:19   -51.761127c  -8.01c -4.68c -2.21c

Converged after 11 iterations.

Dipole moment: (0.000000, -0.000000, 10.222044) |e|*Ang

Energy contributions relative to reference atoms: (reference = -784034.728487)

Kinetic:        +57.299075
Potential:      -60.090765
External:        +0.000000
XC:             -48.701531
Entropy (-ST):   -0.034482
Local:           -0.250665
SIC:             +0.000000
--------------------------
Free energy:    -51.778368
Extrapolated:   -51.761127

Showing only first 2 kpts
 Kpt  Band  Eigenvalues  Occupancy
  0    25      0.09238    1.99990
  0    26      0.30445    1.99921
  0    27      1.68743    0.00496
  0    28      5.20841    0.00000

  1    25      0.16920    1.99979
  1    26      0.24849    1.99955
  1    27      1.69110    0.00478
  1    28      5.33034    0.00000


Fermi level: 1.08766

No gap
No difference between direct/indirect transitions

Forces in eV/Ang:
  0 Pb    0.00000    0.00000    0.01275
  1 Br    0.00000    0.00000   -0.18128
  2 Br    0.00000    0.00000   -0.27377
  3 Br    0.00000    0.00000    0.01404
  4 C     0.00000    0.00000   -0.21222
  5 N    -0.04590    0.00000    0.05728
  6 N     0.04590    0.00000    0.05728
  7 H     0.00000    0.00000    0.15905
  8 H    -0.14209   -0.07731    0.07114
  9 H    -0.14209    0.07731    0.07114
 10 H     0.14209   -0.07731    0.07114
 11 H     0.14209    0.07731    0.07114

System changes: positions 

Initializing position-dependent things.

Density initialized from wave functions
     .--------------.  
    /|              |  
   Br|              |  
  /  |              |  
 *   |  BrH         |  
 |   | H  C    H    |  
 |   |H N    NH     |  
 Br  .--------------.  
 |  /              /   
 | /              /    
 |/              /     
 Pb-------------*      

Atomic positions and initial magnetic moments

Positions:
   0 Pb     0.000000    0.000000    0.021413    ( 0.0000,  0.0000,  0.0000)
   1 Br     2.995000    0.000000   -0.097210    ( 0.0000,  0.0000,  0.0000)
   2 Br     0.000000    2.995000   -0.223737    ( 0.0000,  0.0000,  0.0000)
   3 Br     0.000000    0.000000    3.014694    ( 0.0000,  0.0000,  0.0000)
   4 C      2.995000    2.995000    3.378582    ( 0.0000,  0.0000,  0.0000)
   5 N      1.834153    2.995000    2.654122    ( 0.0000,  0.0000,  0.0000)
   6 N      4.155847    2.995000    2.654122    ( 0.0000,  0.0000,  0.0000)
   7 H      2.995000    2.995000    4.474801    ( 0.0000,  0.0000,  0.0000)
   8 H      1.270683    3.799571    3.037080    ( 0.0000,  0.0000,  0.0000)
   9 H      1.270683    2.190429    3.037080    ( 0.0000,  0.0000,  0.0000)
  10 H      4.719317    3.799571    3.037080    ( 0.0000,  0.0000,  0.0000)
  11 H      4.719317    2.190429    3.037080    ( 0.0000,  0.0000,  0.0000)

Unit cell:
           periodic     x           y           z      points  spacing
  1. axis:    yes    5.990000    0.000000    0.000000    30     0.1997
  2. axis:    yes    0.000000    5.990000    0.000000    30     0.1997
  3. axis:    yes    0.000000    0.000000    5.990000    30     0.1997

  Lengths:   5.990000   5.990000   5.990000
  Angles:   90.000000  90.000000  90.000000

Effective grid spacing dv^(1/3) = 0.1997

     iter     time        total  log10-change:
                         energy   eigst   dens  force
iter:   1 05:33:34   -51.778913   -3.09
iter:   2 05:33:46   -51.777525   -4.44  -2.58
iter:   3 05:33:58   -51.772833   -4.29  -2.63
iter:   4 05:34:09   -51.773753   -5.59  -3.03
iter:   5 05:34:21   -51.772903   -4.72  -3.01
iter:   6 05:34:32   -51.772792   -5.86  -3.43
iter:   7 05:34:43   -51.772744   -5.69  -3.47
iter:   8 05:34:54   -51.772722   -6.35  -3.74
iter:   9 05:35:05   -51.772774c  -6.80  -3.88
iter:  10 05:35:16   -51.772765c  -7.12  -4.06c
iter:  11 05:35:29   -51.772753c  -7.94c -4.47c
iter:  12 05:35:42   -51.772749c  -8.04c -4.51c -2.06c

Converged after 12 iterations.

Dipole moment: (-0.000000, -0.000000, 11.837402) |e|*Ang

Energy contributions relative to reference atoms: (reference = -784034.728487)

Kinetic:        +57.822430
Potential:      -60.486527
External:        +0.000000
XC:             -48.841745
Entropy (-ST):   -0.033507
Local:           -0.250154
SIC:             +0.000000
--------------------------
Free energy:    -51.789502
Extrapolated:   -51.772749

Showing only first 2 kpts
 Kpt  Band  Eigenvalues  Occupancy
  0    25      0.07590    1.99991
  0    26      0.29175    1.99923
  0    27      1.67943    0.00487
  0    28      5.23449    0.00000

  1    25      0.15217    1.99981
  1    26      0.23323    1.99957
  1    27      1.68301    0.00470
  1    28      5.35523    0.00000


Fermi level: 1.07785

No gap
No difference between direct/indirect transitions

Forces in eV/Ang:
  0 Pb    0.00000    0.00000    0.01069
  1 Br    0.00000    0.00000   -0.17978
  2 Br    0.00000    0.00000   -0.21394
  3 Br    0.00000    0.00000    0.00388
  4 C     0.00000    0.00000   -0.60548
  5 N     0.09796    0.00000    0.04561
  6 N    -0.09796    0.00000    0.04561
  7 H     0.00000    0.00000    0.43845
  8 H    -0.20046   -0.00266    0.09810
  9 H    -0.20046    0.00266    0.09810
 10 H     0.20046   -0.00266    0.09810
 11 H     0.20046    0.00266    0.09810

System changes: positions 

Initializing position-dependent things.

Density initialized from wave functions
     .--------------.  
    /|              |  
   Br|              |  
  /  |              |  
 *   |  BrH         |  
 |   | H  C    H    |  
 |   |H N    NH     |  
 Br  .--------------.  
 |  /              /   
 | /              /    
 |/              /     
 Pb-------------*      

Atomic positions and initial magnetic moments

Positions:
   0 Pb     0.000000    0.000000    0.026395    ( 0.0000,  0.0000,  0.0000)
   1 Br     2.995000    0.000000   -0.137016    ( 0.0000,  0.0000,  0.0000)
   2 Br     0.000000    2.995000   -0.296446    ( 0.0000,  0.0000,  0.0000)
   3 Br     0.000000    0.000000    3.018832    ( 0.0000,  0.0000,  0.0000)
   4 C      2.995000    2.995000    3.386656    ( 0.0000,  0.0000,  0.0000)
   5 N      1.831280    2.995000    2.661965    ( 0.0000,  0.0000,  0.0000)
   6 N      4.158720    2.995000    2.661965    ( 0.0000,  0.0000,  0.0000)
   7 H      2.995000    2.995000    4.475815    ( 0.0000,  0.0000,  0.0000)
   8 H      1.269161    3.793999    3.052652    ( 0.0000,  0.0000,  0.0000)
   9 H      1.269161    2.196001    3.052652    ( 0.0000,  0.0000,  0.0000)
  10 H      4.720839    3.793999    3.052652    ( 0.0000,  0.0000,  0.0000)
  11 H      4.720839    2.196001    3.052652    ( 0.0000,  0.0000,  0.0000)

Unit cell:
           periodic     x           y           z      points  spacing
  1. axis:    yes    5.990000    0.000000    0.000000    30     0.1997
  2. axis:    yes    0.000000    5.990000    0.000000    30     0.1997
  3. axis:    yes    0.000000    0.000000    5.990000    30     0.1997

  Lengths:   5.990000   5.990000   5.990000
  Angles:   90.000000  90.000000  90.000000

Effective grid spacing dv^(1/3) = 0.1997

     iter     time        total  log10-change:
                         energy   eigst   dens  force
iter:   1 05:35:57   -51.802500   -2.56
iter:   2 05:36:09   -51.800661   -3.91  -2.41
iter:   3 05:36:19   -51.793037   -3.72  -2.45
iter:   4 05:36:30   -51.794497   -4.94  -2.87
iter:   5 05:36:41   -51.793785   -4.59  -2.84
iter:   6 05:36:52   -51.793556   -4.98  -3.19
iter:   7 05:37:03   -51.793445   -5.09  -3.21
iter:   8 05:37:13   -51.793421   -6.10  -3.57
iter:   9 05:37:23   -51.793506   -6.03  -3.69
iter:  10 05:37:35   -51.793515   -6.40  -3.74
iter:  11 05:37:45   -51.793513c  -7.27  -4.26c
iter:  12 05:37:59   -51.793529c  -7.55c -4.32c
iter:  13 05:38:11   -51.793526c  -8.43c -4.54c -2.44c

Converged after 13 iterations.

Dipole moment: (0.000000, -0.000000, 14.232837) |e|*Ang

Energy contributions relative to reference atoms: (reference = -784034.728487)

Kinetic:        +58.126037
Potential:      -60.718960
External:        +0.000000
XC:             -48.935330
Entropy (-ST):   -0.030385
Local:           -0.250081
SIC:             +0.000000
--------------------------
Free energy:    -51.808719
Extrapolated:   -51.793526

Showing only first 2 kpts
 Kpt  Band  Eigenvalues  Occupancy
  0    25      0.05208    1.99992
  0    26      0.27281    1.99928
  0    27      1.68232    0.00417
  0    28      5.27330    0.00000

  1    25      0.12595    1.99983
  1    26      0.21109    1.99961
  1    27      1.68559    0.00403
  1    28      5.38908    0.00000


Fermi level: 1.06516

No gap
No difference between direct/indirect transitions

Forces in eV/Ang:
  0 Pb    0.00000    0.00000   -0.00260
  1 Br    0.00000    0.00000   -0.17619
  2 Br    0.00000    0.00000   -0.09898
  3 Br    0.00000    0.00000   -0.01001
  4 C     0.00000    0.00000   -0.94303
  5 N     0.26852    0.00000    0.01426
  6 N    -0.26852    0.00000    0.01426
  7 H     0.00000    0.00000    0.65758
  8 H    -0.23044    0.08126    0.12141
  9 H    -0.23044   -0.08126    0.12141
 10 H     0.23044    0.08126    0.12141
 11 H     0.23044   -0.08126    0.12141

System changes: positions 

Initializing position-dependent things.

Density initialized from wave functions
     .--------------.  
    /|              |  
   Br|              |  
  /  |              |  
 *   |  BrH         |  
 |   | H  C    H    |  
 |   |H N    NH     |  
 Br  .--------------.  
 |  /              /   
 | /              /    
 |/              /     
 Pb-------------*      

Atomic positions and initial magnetic moments

Positions:
   0 Pb     0.000000    0.000000    0.032860    ( 0.0000,  0.0000,  0.0000)
   1 Br     2.995000    0.000000   -0.193032    ( 0.0000,  0.0000,  0.0000)
   2 Br     0.000000    2.995000   -0.393843    ( 0.0000,  0.0000,  0.0000)
   3 Br     0.000000    0.000000    3.024024    ( 0.0000,  0.0000,  0.0000)
   4 C      2.995000    2.995000    3.391716    ( 0.0000,  0.0000,  0.0000)
   5 N      1.827713    2.995000    2.670866    ( 0.0000,  0.0000,  0.0000)
   6 N      4.162287    2.995000    2.670866    ( 0.0000,  0.0000,  0.0000)
   7 H      2.995000    2.995000    4.483378    ( 0.0000,  0.0000,  0.0000)
   8 H      1.262056    3.786317    3.074787    ( 0.0000,  0.0000,  0.0000)
   9 H      1.262056    2.203683    3.074787    ( 0.0000,  0.0000,  0.0000)
  10 H      4.727944    3.786317    3.074787    ( 0.0000,  0.0000,  0.0000)
  11 H      4.727944    2.203683    3.074787    ( 0.0000,  0.0000,  0.0000)

Unit cell:
           periodic     x           y           z      points  spacing
  1. axis:    yes    5.990000    0.000000    0.000000    30     0.1997
  2. axis:    yes    0.000000    5.990000    0.000000    30     0.1997
  3. axis:    yes    0.000000    0.000000    5.990000    30     0.1997

  Lengths:   5.990000   5.990000   5.990000
  Angles:   90.000000  90.000000  90.000000

Effective grid spacing dv^(1/3) = 0.1997

     iter     time        total  log10-change:
                         energy   eigst   dens  force
iter:   1 05:38:26   -51.826647   -2.29
iter:   2 05:38:36   -51.825225   -3.61  -2.34
iter:   3 05:38:48   -51.818866   -3.20  -2.38
iter:   4 05:39:00   -51.818449   -4.55  -2.73
iter:   5 05:39:11   -51.819111   -4.32  -2.84
iter:   6 05:39:22   -51.818479   -4.47  -2.86
iter:   7 05:39:33   -51.818207   -5.48  -3.30
iter:   8 05:39:43   -51.818232   -6.16  -3.57
iter:   9 05:39:53   -51.818360   -6.78  -3.72
iter:  10 05:40:05   -51.818375   -6.77  -3.88
iter:  11 05:40:19   -51.818373c  -7.64c -4.15c
iter:  12 05:40:31   -51.818372c  -8.19c -4.18c -2.46c

Converged after 12 iterations.

Dipole moment: (-0.000000, -0.000000, 15.879872) |e|*Ang

Energy contributions relative to reference atoms: (reference = -784034.728487)

Kinetic:        +57.865295
Potential:      -60.542420
External:        +0.000000
XC:             -48.878517
Entropy (-ST):   -0.024334
Local:           -0.250562
SIC:             +0.000000
--------------------------
Free energy:    -51.830539
Extrapolated:   -51.818372

Showing only first 2 kpts
 Kpt  Band  Eigenvalues  Occupancy
  0    25      0.03194    1.99993
  0    26      0.24893    1.99939
  0    27      1.71577    0.00278
  0    28      5.31368    0.00000

  1    25      0.10084    1.99986
  1    26      0.18648    1.99967
  1    27      1.71863    0.00270
  1    28      5.41794    0.00000


Fermi level: 1.05798

No gap
No difference between direct/indirect transitions

Forces in eV/Ang:
  0 Pb    0.00000    0.00000   -0.01923
  1 Br    0.00000    0.00000   -0.16685
  2 Br    0.00000    0.00000    0.06462
  3 Br    0.00000    0.00000   -0.02949
  4 C     0.00000    0.00000   -0.86648
  5 N     0.29323    0.00000   -0.01988
  6 N    -0.29323    0.00000   -0.01988
  7 H     0.00000    0.00000    0.56364
  8 H    -0.17035    0.11083    0.10777
  9 H    -0.17035   -0.11083    0.10777
 10 H     0.17035    0.11083    0.10777
 11 H     0.17035   -0.11083    0.10777

System changes: positions 

Initializing position-dependent things.

Density initialized from wave functions
     .--------------.  
    /|              |  
   / |              |  
  /Br|              |  
 *   |  BrH         |  
 |   | H  C    H    |  
 |   |H N    NH     |  
 Br  .--------------.  
 |  /              /   
 | /              /    
 |/              /     
 Pb-------------*      

Atomic positions and initial magnetic moments

Positions:
   0 Pb     0.000000    0.000000    0.035213    ( 0.0000,  0.0000,  0.0000)
   1 Br     2.995000    0.000000   -0.220404    ( 0.0000,  0.0000,  0.0000)
   2 Br     0.000000    2.995000   -0.433943    ( 0.0000,  0.0000,  0.0000)
   3 Br     0.000000    0.000000    3.025599    ( 0.0000,  0.0000,  0.0000)
   4 C      2.995000    2.995000    3.388400    ( 0.0000,  0.0000,  0.0000)
   5 N      1.825833    2.995000    2.673534    ( 0.0000,  0.0000,  0.0000)
   6 N      4.164167    2.995000    2.673534    ( 0.0000,  0.0000,  0.0000)
   7 H      2.995000    2.995000    4.490766    ( 0.0000,  0.0000,  0.0000)
   8 H      1.253574    3.782510    3.085549    ( 0.0000,  0.0000,  0.0000)
   9 H      1.253574    2.207490    3.085549    ( 0.0000,  0.0000,  0.0000)
  10 H      4.736426    3.782510    3.085549    ( 0.0000,  0.0000,  0.0000)
  11 H      4.736426    2.207490    3.085549    ( 0.0000,  0.0000,  0.0000)

Unit cell:
           periodic     x           y           z      points  spacing
  1. axis:    yes    5.990000    0.000000    0.000000    30     0.1997
  2. axis:    yes    0.000000    5.990000    0.000000    30     0.1997
  3. axis:    yes    0.000000    0.000000    5.990000    30     0.1997

  Lengths:   5.990000   5.990000   5.990000
  Angles:   90.000000  90.000000  90.000000

Effective grid spacing dv^(1/3) = 0.1997

     iter     time        total  log10-change:
                         energy   eigst   dens  force
iter:   1 05:40:46   -51.830890   -2.92
iter:   2 05:40:58   -51.830840   -4.19  -2.57
iter:   3 05:41:09   -51.831061   -4.32  -2.61
iter:   4 05:41:21   -51.830845   -5.22  -2.91
iter:   5 05:41:33   -51.830406   -4.79  -3.01
iter:   6 05:41:44   -51.830702   -5.81  -3.34
iter:   7 05:41:55   -51.830593   -5.54  -3.40
iter:   8 05:42:06   -51.830546   -6.73  -3.75
iter:   9 05:42:17   -51.830596c  -6.11  -3.87
iter:  10 05:42:28   -51.830576c  -6.90  -3.93
iter:  11 05:42:40   -51.830578c  -7.90c -4.44c
iter:  12 05:42:52   -51.830590c  -8.39c -4.48c -2.29c

Converged after 12 iterations.

Dipole moment: (-0.000000, -0.000000, 16.176654) |e|*Ang

Energy contributions relative to reference atoms: (reference = -784034.728487)

Kinetic:        +57.113950
Potential:      -59.998876
External:        +0.000000
XC:             -48.688375
Entropy (-ST):   -0.020610
Local:           -0.246984
SIC:             +0.000000
--------------------------
Free energy:    -51.840895
Extrapolated:   -51.830590

Showing only first 2 kpts
 Kpt  Band  Eigenvalues  Occupancy
  0    25      0.02598    1.99994
  0    26      0.23925    1.99947
  0    27      1.75457    0.00199
  0    28      5.31853    0.00000

  1    25      0.09209    1.99988
  1    26      0.17825    1.99971
  1    27      1.75719    0.00194
  1    28      5.41599    0.00000


Fermi level: 1.06363

Gap: 0.220 eV
Transition (v -> c):
  (s=0, k=63, n=26, [0.50, 0.50, 0.50]) -> (s=0, k=15, n=27, [0.00, 0.50, 0.50])
Direct/indirect transitions are different
Direct gap: 0.573 eV
Transition at: (s=0, k=63, n=26, [0.50, 0.50, 0.50])

Forces in eV/Ang:
  0 Pb    0.00000    0.00000   -0.03581
  1 Br    0.00000    0.00000   -0.15901
  2 Br    0.00000    0.00000    0.13606
  3 Br    0.00000    0.00000   -0.02943
  4 C     0.00000    0.00000   -0.39438
  5 N     0.14068    0.00000   -0.01566
  6 N    -0.14068    0.00000   -0.01566
  7 H     0.00000    0.00000    0.22012
  8 H    -0.05107    0.06029    0.06068
  9 H    -0.05107   -0.06029    0.06068
 10 H     0.05107    0.06029    0.06068
 11 H     0.05107   -0.06029    0.06068

System changes: positions 

Initializing position-dependent things.

Density initialized from wave functions
     .--------------.  
    /|              |  
   Br|              |  
  /  |              |  
 *   |  BrH         |  
 |   | H  C    H    |  
 |   |H N    NH     |  
 Br  .--------------.  
 |  /              /   
 | /              /    
 |/              /     
 Pb-------------*      

Atomic positions and initial magnetic moments

Positions:
   0 Pb     0.000000    0.000000    0.034108    ( 0.0000,  0.0000,  0.0000)
   1 Br     2.995000    0.000000   -0.221928    ( 0.0000,  0.0000,  0.0000)
   2 Br     0.000000    2.995000   -0.426528    ( 0.0000,  0.0000,  0.0000)
   3 Br     0.000000    0.000000    3.024608    ( 0.0000,  0.0000,  0.0000)
   4 C      2.995000    2.995000    3.383082    ( 0.0000,  0.0000,  0.0000)
   5 N      1.825515    2.995000    2.672556    ( 0.0000,  0.0000,  0.0000)
   6 N      4.164485    2.995000    2.672556    ( 0.0000,  0.0000,  0.0000)
   7 H      2.995000    2.995000    4.492995    ( 0.0000,  0.0000,  0.0000)
   8 H      1.249920    3.782890    3.085776    ( 0.0000,  0.0000,  0.0000)
   9 H      1.249920    2.207110    3.085776    ( 0.0000,  0.0000,  0.0000)
  10 H      4.740080    3.782890    3.085776    ( 0.0000,  0.0000,  0.0000)
  11 H      4.740080    2.207110    3.085776    ( 0.0000,  0.0000,  0.0000)

Unit cell:
           periodic     x           y           z      points  spacing
  1. axis:    yes    5.990000    0.000000    0.000000    30     0.1997
  2. axis:    yes    0.000000    5.990000    0.000000    30     0.1997
  3. axis:    yes    0.000000    0.000000    5.990000    30     0.1997

  Lengths:   5.990000   5.990000   5.990000
  Angles:   90.000000  90.000000  90.000000

Effective grid spacing dv^(1/3) = 0.1997

     iter     time        total  log10-change:
                         energy   eigst   dens  force
iter:   1 05:43:07   -51.833362   -3.74
iter:   2 05:43:18   -51.833427   -5.03  -2.90
iter:   3 05:43:29   -51.833909   -5.08  -2.95
iter:   4 05:43:40   -51.833854   -5.98  -3.29
iter:   5 05:43:51   -51.833770   -5.38  -3.40
iter:   6 05:44:02   -51.833865   -6.55  -3.76
iter:   7 05:44:12   -51.833841   -6.40  -3.80
iter:   8 05:44:22   -51.833830c  -6.97  -4.05c
iter:   9 05:44:32   -51.833841c  -7.10  -4.24c
iter:  10 05:44:45   -51.833832c  -7.90c -4.37c
iter:  11 05:44:58   -51.833830c  -8.87c -4.76c -2.86c

Converged after 11 iterations.

Dipole moment: (0.000000, -0.000000, 16.319566) |e|*Ang

Energy contributions relative to reference atoms: (reference = -784034.728487)

Kinetic:        +56.632944
Potential:      -59.644628
External:        +0.000000
XC:             -48.565581
Entropy (-ST):   -0.020120
Local:           -0.246506
SIC:             +0.000000
--------------------------
Free energy:    -51.843890
Extrapolated:   -51.833830

Showing only first 2 kpts
 Kpt  Band  Eigenvalues  Occupancy
  0    25      0.02697    1.99994
  0    26      0.24176    1.99950
  0    27      1.77073    0.00184
  0    28      5.30306    0.00000

  1    25      0.09291    1.99989
  1    26      0.18136    1.99973
  1    27      1.77326    0.00179
  1    28      5.40129    0.00000


Fermi level: 1.07154

Gap: 0.218 eV
Transition (v -> c):
  (s=0, k=63, n=26, [0.50, 0.50, 0.50]) -> (s=0, k=15, n=27, [0.00, 0.50, 0.50])
Direct/indirect transitions are different
Direct gap: 0.581 eV
Transition at: (s=0, k=63, n=26, [0.50, 0.50, 0.50])

Forces in eV/Ang:
  0 Pb    0.00000    0.00000   -0.03828
  1 Br    0.00000    0.00000   -0.15602
  2 Br    0.00000    0.00000    0.11982
  3 Br    0.00000    0.00000   -0.02333
  4 C     0.00000    0.00000   -0.03225
  5 N    -0.00039    0.00000   -0.02489
  6 N     0.00039    0.00000   -0.02489
  7 H     0.00000    0.00000   -0.00279
  8 H     0.01573    0.00737    0.03292
  9 H     0.01573   -0.00737    0.03292
 10 H    -0.01573    0.00737    0.03292
 11 H    -0.01573   -0.00737    0.03292

System changes: positions 

Initializing position-dependent things.

Density initialized from wave functions
     .--------------.  
    /|              |  
   Br|              |  
  /  |              |  
 *   |  BrH         |  
 |   | H  C    H    |  
 |   |H N    NH     |  
 Br  .--------------.  
 |  /              /   
 | /              /    
 |/              /     
 Pb-------------*      

Atomic positions and initial magnetic moments

Positions:
   0 Pb     0.000000    0.000000    0.032878    ( 0.0000,  0.0000,  0.0000)
   1 Br     2.995000    0.000000   -0.223064    ( 0.0000,  0.0000,  0.0000)
[...]
   3 Br     0.000000    0.000000    2.839575    ( 0.0000,  0.0000,  0.0000)
   4 C      2.995000    2.995000    3.500563    ( 0.0000,  0.0000,  0.0000)
   5 N      1.825434    2.995000    2.780682    ( 0.0000,  0.0000,  0.0000)
   6 N      4.164566    2.995000    2.780682    ( 0.0000,  0.0000,  0.0000)
   7 H      2.995000    2.995000    4.605968    ( 0.0000,  0.0000,  0.0000)
   8 H      1.251097    3.792018    3.164387    ( 0.0000,  0.0000,  0.0000)
   9 H      1.251097    2.197982    3.164387    ( 0.0000,  0.0000,  0.0000)
  10 H      4.738903    3.792018    3.164387    ( 0.0000,  0.0000,  0.0000)
  11 H      4.738903    2.197982    3.164387    ( 0.0000,  0.0000,  0.0000)

Unit cell:
           periodic     x           y           z      points  spacing
  1. axis:    yes    5.990000    0.000000    0.000000    30     0.1997
  2. axis:    yes    0.000000    5.990000    0.000000    30     0.1997
  3. axis:    yes    0.000000    0.000000    5.990000    30     0.1997

  Lengths:   5.990000   5.990000   5.990000
  Angles:   90.000000  90.000000  90.000000

Effective grid spacing dv^(1/3) = 0.1997

     iter     time        total  log10-change:
                         energy   eigst   dens  force
iter:   1 06:31:58   -51.956205   -1.73
iter:   2 06:32:08   -51.952922   -3.01  -2.09
iter:   3 06:32:20   -51.938417   -3.26  -2.12
iter:   4 06:32:32   -51.937390   -4.32  -2.40
iter:   5 06:32:43   -51.934624   -3.98  -2.46
iter:   6 06:32:54   -51.934824   -4.55  -2.89
iter:   7 06:33:05   -51.934783   -4.90  -2.98
iter:   8 06:33:16   -51.934651   -5.59  -3.19
iter:   9 06:33:28   -51.934689   -5.46  -3.47
iter:  10 06:33:38   -51.934650c  -6.06  -3.53
iter:  11 06:33:49   -51.934651c  -7.10  -4.07c
iter:  12 06:34:00   -51.934664c  -7.09  -4.08c
iter:  13 06:34:10   -51.934659c  -6.97  -4.26c
iter:  14 06:34:24   -51.934661c  -8.01c -4.34c
iter:  15 06:34:36   -51.934662c  -8.26c -4.55c -2.18c

Converged after 15 iterations.

Dipole moment: (0.000000, -0.000000, 19.081392) |e|*Ang

Energy contributions relative to reference atoms: (reference = -784034.728487)

Kinetic:        +56.202136
Potential:      -59.206865
External:        +0.000000
XC:             -48.667640
Entropy (-ST):   -0.006517
Local:           -0.259035
SIC:             +0.000000
--------------------------
Free energy:    -51.937920
Extrapolated:   -51.934662

Showing only first 2 kpts
 Kpt  Band  Eigenvalues  Occupancy
  0    25     -0.03331    1.99997
  0    26      0.27692    1.99944
  0    27      2.04796    0.00014
  0    28      5.51467    0.00000

  1    25      0.04914    1.99994
  1    26      0.18481    1.99978
  1    27      2.04865    0.00014
  1    28      5.53241    0.00000


Fermi level: 1.09414

Gap: 0.542 eV
Transition (v -> c):
  (s=0, k=63, n=26, [0.50, 0.50, 0.50]) -> (s=0, k=15, n=27, [0.00, 0.50, 0.50])
Direct/indirect transitions are different
Direct gap: 0.669 eV
Transition at: (s=0, k=15, n=26, [0.00, 0.50, 0.50])

Forces in eV/Ang:
  0 Pb    0.00000    0.00000    0.01914
  1 Br    0.00000    0.00000    0.00472
  2 Br    0.00000    0.00000   -0.00238
  3 Br    0.00000    0.00000   -0.01120
  4 C     0.00000    0.00000    0.00233
  5 N    -0.00217    0.00000   -0.00288
  6 N     0.00217    0.00000   -0.00288
  7 H     0.00000    0.00000    0.01384
  8 H     0.00372   -0.00114   -0.00064
  9 H     0.00372    0.00114   -0.00064
 10 H    -0.00372   -0.00114   -0.00064
 11 H    -0.00372    0.00114   -0.00064

System changes: positions 

Initializing position-dependent things.

Density initialized from wave functions
     .--------------.  
    /|              |  
   Br|              |  
  /  |              |  
 Pb  |    H         |  
 |   | HBrC    H    |  
 |   |H N    NH     |  
 |   .--------------.  
 Br /              /   
 | /              /    
 |/              /     
 *--------------*      

Atomic positions and initial magnetic moments

Positions:
   0 Pb     0.000000    0.000000   -0.154262    ( 0.0000,  0.0000,  0.0000)
   1 Br     2.995000    0.000000   -0.917871    ( 0.0000,  0.0000,  0.0000)
   2 Br     0.000000    2.995000   -0.271685    ( 0.0000,  0.0000,  0.0000)
   3 Br     0.000000    0.000000    2.841777    ( 0.0000,  0.0000,  0.0000)
   4 C      2.995000    2.995000    3.499565    ( 0.0000,  0.0000,  0.0000)
   5 N      1.825604    2.995000    2.779341    ( 0.0000,  0.0000,  0.0000)
   6 N      4.164396    2.995000    2.779341    ( 0.0000,  0.0000,  0.0000)
   7 H      2.995000    2.995000    4.605209    ( 0.0000,  0.0000,  0.0000)
   8 H      1.251274    3.791933    3.163244    ( 0.0000,  0.0000,  0.0000)
   9 H      1.251274    2.198067    3.163244    ( 0.0000,  0.0000,  0.0000)
  10 H      4.738726    3.791933    3.163244    ( 0.0000,  0.0000,  0.0000)
  11 H      4.738726    2.198067    3.163244    ( 0.0000,  0.0000,  0.0000)

Unit cell:
           periodic     x           y           z      points  spacing
  1. axis:    yes    5.990000    0.000000    0.000000    30     0.1997
  2. axis:    yes    0.000000    5.990000    0.000000    30     0.1997
  3. axis:    yes    0.000000    0.000000    5.990000    30     0.1997

  Lengths:   5.990000   5.990000   5.990000
  Angles:   90.000000  90.000000  90.000000

Effective grid spacing dv^(1/3) = 0.1997

     iter     time        total  log10-change:
                         energy   eigst   dens  force
iter:   1 06:34:51   -51.934618   -4.40
iter:   2 06:35:02   -51.934631   -5.67  -3.61
iter:   3 06:35:14   -51.934688   -6.40  -3.64
iter:   4 06:35:25   -51.934685   -7.61c -3.91
iter:   5 06:35:36   -51.934681c  -7.09  -3.95
iter:   6 06:35:48   -51.934692c  -7.89c -4.37c
iter:   7 06:36:01   -51.934685c  -7.91c -4.47c -2.03c

Converged after 7 iterations.

Dipole moment: (-0.000000, -0.000000, 19.007282) |e|*Ang

Energy contributions relative to reference atoms: (reference = -784034.728487)

Kinetic:        +56.193271
Potential:      -59.204208
External:        +0.000000
XC:             -48.663505
Entropy (-ST):   -0.006557
Local:           -0.256964
SIC:             +0.000000
--------------------------
Free energy:    -51.937963
Extrapolated:   -51.934685

Showing only first 2 kpts
 Kpt  Band  Eigenvalues  Occupancy
  0    25     -0.03187    1.99997
  0    26      0.27586    1.99944
  0    27      2.04513    0.00015
  0    28      5.51207    0.00000

  1    25      0.05027    1.99994
  1    26      0.18383    1.99978
  1    27      2.04581    0.00015
  1    28      5.53050    0.00000


Fermi level: 1.09348

Gap: 0.543 eV
Transition (v -> c):
  (s=0, k=63, n=26, [0.50, 0.50, 0.50]) -> (s=0, k=15, n=27, [0.00, 0.50, 0.50])
Direct/indirect transitions are different
Direct gap: 0.669 eV
Transition at: (s=0, k=15, n=26, [0.00, 0.50, 0.50])

Forces in eV/Ang:
  0 Pb    0.00000    0.00000    0.01206
  1 Br    0.00000    0.00000    0.00736
  2 Br    0.00000    0.00000   -0.00044
  3 Br    0.00000    0.00000   -0.00538
  4 C     0.00000    0.00000   -0.00110
  5 N     0.00106    0.00000    0.00643
  6 N    -0.00106    0.00000    0.00643
  7 H     0.00000    0.00000    0.00673
  8 H     0.00214    0.00033    0.00010
  9 H     0.00214   -0.00033    0.00010
 10 H    -0.00214    0.00033    0.00010
 11 H    -0.00214   -0.00033    0.00010

System changes: positions 

Initializing position-dependent things.

Density initialized from wave functions
     .--------------.  
    /|              |  
   Br|              |  
  /  |              |  
 Pb  |    H         |  
 |   | HBrC    H    |  
 |   |H N    NH     |  
 |   .--------------.  
 Br /              /   
 | /              /    
 |/              /     
 *--------------*      

Atomic positions and initial magnetic moments

Positions:
   0 Pb     0.000000    0.000000   -0.137062    ( 0.0000,  0.0000,  0.0000)
   1 Br     2.995000    0.000000   -0.880962    ( 0.0000,  0.0000,  0.0000)
   2 Br     0.000000    2.995000   -0.282270    ( 0.0000,  0.0000,  0.0000)
   3 Br     0.000000    0.000000    2.850767    ( 0.0000,  0.0000,  0.0000)
   4 C      2.995000    2.995000    3.494599    ( 0.0000,  0.0000,  0.0000)
   5 N      1.826234    2.995000    2.773953    ( 0.0000,  0.0000,  0.0000)
   6 N      4.163766    2.995000    2.773953    ( 0.0000,  0.0000,  0.0000)
   7 H      2.995000    2.995000    4.601058    ( 0.0000,  0.0000,  0.0000)
   8 H      1.251785    3.791997    3.157828    ( 0.0000,  0.0000,  0.0000)
   9 H      1.251785    2.198003    3.157828    ( 0.0000,  0.0000,  0.0000)
  10 H      4.738215    3.791997    3.157828    ( 0.0000,  0.0000,  0.0000)
  11 H      4.738215    2.198003    3.157828    ( 0.0000,  0.0000,  0.0000)

Unit cell:
           periodic     x           y           z      points  spacing
  1. axis:    yes    5.990000    0.000000    0.000000    30     0.1997
  2. axis:    yes    0.000000    5.990000    0.000000    30     0.1997
  3. axis:    yes    0.000000    0.000000    5.990000    30     0.1997

  Lengths:   5.990000   5.990000   5.990000
  Angles:   90.000000  90.000000  90.000000

Effective grid spacing dv^(1/3) = 0.1997

     iter     time        total  log10-change:
                         energy   eigst   dens  force
iter:   1 06:36:15   -51.934124   -3.09
iter:   2 06:36:26   -51.934168   -4.33  -2.98
iter:   3 06:36:38   -51.934130c  -5.14  -2.99
iter:   4 06:36:50   -51.934141c  -5.87  -3.21
iter:   5 06:37:01   -51.934059   -5.76  -3.30
iter:   6 06:37:12   -51.934098   -6.56  -3.74
iter:   7 06:37:22   -51.934071c  -6.45  -3.78
iter:   8 06:37:35   -51.934064c  -7.44c -4.12c
iter:   9 06:37:48   -51.934074c  -7.41c -4.36c -1.90
iter:  10 06:37:59   -51.934072c  -7.97c -4.47c -1.95
iter:  11 06:38:12   -51.934071c  -9.24c -4.90c -2.95c

Converged after 11 iterations.

Dipole moment: (-0.000000, -0.000000, 18.862819) |e|*Ang

Energy contributions relative to reference atoms: (reference = -784034.728487)

Kinetic:        +56.220751
Potential:      -59.236350
External:        +0.000000
XC:             -48.656885
Entropy (-ST):   -0.006881
Local:           -0.258146
SIC:             +0.000000
--------------------------
Free energy:    -51.937511
Extrapolated:   -51.934071

Showing only first 2 kpts
 Kpt  Band  Eigenvalues  Occupancy
  0    25     -0.02644    1.99997
  0    26      0.27303    1.99943
  0    27      2.02637    0.00017
  0    28      5.49640    0.00000

  1    25      0.05513    1.99994
  1    26      0.18120    1.99977
  1    27      2.02704    0.00017
  1    28      5.52044    0.00000


Fermi level: 1.09005

Gap: 0.534 eV
Transition (v -> c):
  (s=0, k=63, n=26, [0.50, 0.50, 0.50]) -> (s=0, k=15, n=27, [0.00, 0.50, 0.50])
Direct/indirect transitions are different
Direct gap: 0.669 eV
Transition at: (s=0, k=15, n=26, [0.00, 0.50, 0.50])

Forces in eV/Ang:
  0 Pb    0.00000    0.00000   -0.00770
  1 Br    0.00000    0.00000   -0.01271
  2 Br    0.00000    0.00000    0.01192
  3 Br    0.00000    0.00000    0.00793
  4 C     0.00000    0.00000    0.00317
  5 N     0.00412    0.00000    0.01304
  6 N    -0.00412    0.00000    0.01304
  7 H     0.00000    0.00000   -0.01338
  8 H    -0.00340   -0.00103    0.00823
  9 H    -0.00340    0.00103    0.00823
 10 H     0.00340   -0.00103    0.00823
 11 H     0.00340    0.00103    0.00823

System changes: positions 

Initializing position-dependent things.

Density initialized from wave functions
     .--------------.  
    /|              |  
   Br|              |  
  /  |              |  
 Pb  |    H         |  
 |   | HBrC    H    |  
 |   |H N    NH     |  
 |   .--------------.  
 Br /              /   
 | /              /    
 |/              /     
 *--------------*      

Atomic positions and initial magnetic moments

Positions:
   0 Pb     0.000000    0.000000   -0.149581    ( 0.0000,  0.0000,  0.0000)
   1 Br     2.995000    0.000000   -0.907841    ( 0.0000,  0.0000,  0.0000)
   2 Br     0.000000    2.995000   -0.273716    ( 0.0000,  0.0000,  0.0000)
   3 Br     0.000000    0.000000    2.842335    ( 0.0000,  0.0000,  0.0000)
   4 C      2.995000    2.995000    3.498619    ( 0.0000,  0.0000,  0.0000)
   5 N      1.825702    2.995000    2.778494    ( 0.0000,  0.0000,  0.0000)
   6 N      4.164298    2.995000    2.778494    ( 0.0000,  0.0000,  0.0000)
   7 H      2.995000    2.995000    4.604385    ( 0.0000,  0.0000,  0.0000)
   8 H      1.251376    3.792049    3.162174    ( 0.0000,  0.0000,  0.0000)
   9 H      1.251376    2.197951    3.162174    ( 0.0000,  0.0000,  0.0000)
  10 H      4.738624    3.792049    3.162174    ( 0.0000,  0.0000,  0.0000)
  11 H      4.738624    2.197951    3.162174    ( 0.0000,  0.0000,  0.0000)

Unit cell:
           periodic     x           y           z      points  spacing
  1. axis:    yes    5.990000    0.000000    0.000000    30     0.1997
  2. axis:    yes    0.000000    5.990000    0.000000    30     0.1997
  3. axis:    yes    0.000000    0.000000    5.990000    30     0.1997

  Lengths:   5.990000   5.990000   5.990000
  Angles:   90.000000  90.000000  90.000000

Effective grid spacing dv^(1/3) = 0.1997

     iter     time        total  log10-change:
                         energy   eigst   dens  force
iter:   1 06:38:26   -51.935076   -3.32
iter:   2 06:38:37   -51.935029   -4.57  -3.07
iter:   3 06:38:49   -51.934680   -5.37  -3.09
iter:   4 06:38:59   -51.934633   -6.18  -3.32
iter:   5 06:39:10   -51.934649c  -5.94  -3.40
iter:   6 06:39:21   -51.934614c  -6.67  -3.83
iter:   7 06:39:31   -51.934645c  -6.65  -3.88
iter:   8 06:39:45   -51.934642c  -7.59c -4.19c
iter:   9 06:39:58   -51.934634c  -7.78c -4.47c -2.05c

Converged after 9 iterations.

Dipole moment: (-0.000000, -0.000000, 18.958384) |e|*Ang

Energy contributions relative to reference atoms: (reference = -784034.728487)

Kinetic:        +56.227252
Potential:      -59.231877
External:        +0.000000
XC:             -48.664392
Entropy (-ST):   -0.006672
Local:           -0.262281
SIC:             +0.000000
--------------------------
Free energy:    -51.937970
Extrapolated:   -51.934634

Showing only first 2 kpts
 Kpt  Band  Eigenvalues  Occupancy
  0    25     -0.03074    1.99997
  0    26      0.27559    1.99944
  0    27      2.03955    0.00015
  0    28      5.50801    0.00000

  1    25      0.05140    1.99994
  1    26      0.18355    1.99977
  1    27      2.04023    0.00015
  1    28      5.52813    0.00000


Fermi level: 1.09279

Gap: 0.538 eV
Transition (v -> c):
  (s=0, k=63, n=26, [0.50, 0.50, 0.50]) -> (s=0, k=15, n=27, [0.00, 0.50, 0.50])
Direct/indirect transitions are different
Direct gap: 0.668 eV
Transition at: (s=0, k=15, n=26, [0.00, 0.50, 0.50])

Forces in eV/Ang:
  0 Pb    0.00000    0.00000    0.00247
  1 Br    0.00000    0.00000    0.00273
  2 Br    0.00000    0.00000    0.00085
  3 Br    0.00000    0.00000    0.00285
  4 C     0.00000    0.00000    0.00342
  5 N    -0.00036    0.00000   -0.00483
  6 N     0.00036    0.00000   -0.00483
  7 H     0.00000    0.00000    0.00504
  8 H     0.00033   -0.00012    0.00361
  9 H     0.00033    0.00012    0.00361
 10 H    -0.00033   -0.00012    0.00361
 11 H    -0.00033    0.00012    0.00361

Writing to /home/luis-ochoa/Documents/Vscode/py/dft/calculations/top8_r2scan/FAPbBr3/01_relax_sym/relax_sym.gpw (mode='')

Timing:                                      incl.     excl.
-------------------------------------------------------------------
Density initialized from wave functions:    44.328    43.777   0.6% |
 Symmetrize density:                         0.551     0.551   0.0% |
Forces:                                     86.419    86.419   1.2% |
Hamiltonian:                                18.863     0.121   0.0% |
 Atomic:                                     8.832     3.771   0.1% |
  XC Correction:                             5.061     5.061   0.1% |
 Calculate atomic Hamiltonians:              3.249     3.249   0.0% |
 Communicate:                                0.197     0.197   0.0% |
 Initialize Hamiltonian:                     0.000     0.000   0.0% |
 Poisson:                                    0.104     0.104   0.0% |
 XC 3D grid:                                 6.360     6.360   0.1% |
LCAO initialization:                         7.960     0.699   0.0% |
 LCAO eigensolver:                           0.536     0.001   0.0% |
  Calculate projections:                     0.004     0.004   0.0% |
  DenseAtomicCorrection:                     0.037     0.037   0.0% |
  Distribute overlap matrix:                 0.000     0.000   0.0% |
  Orbital Layouts:                           0.007     0.007   0.0% |
  Potential matrix:                          0.481     0.481   0.0% |
  Sum over cells:                            0.006     0.006   0.0% |
 LCAO to grid:                               5.589     5.589   0.1% |
 Set positions (LCAO WFS):                   1.136     0.190   0.0% |
  Basic WFS set positions:                   0.002     0.002   0.0% |
  Basis functions set positions:             0.000     0.000   0.0% |
  P tci:                                     0.482     0.482   0.0% |
  ST tci:                                    0.419     0.419   0.0% |
  mktci:                                     0.043     0.043   0.0% |
PWDescriptor:                                0.035     0.035   0.0% |
Redistribute:                                0.288     0.288   0.0% |
SCF-cycle:                                6223.309   791.125  11.0% |---|
 Davidson:                                4527.705   869.884  12.1% |----|
  Apply H:                                 638.038   623.245   8.7% |--|
   HMM T:                                   14.793    14.793   0.2% |
  Subspace diag:                           890.834     1.176   0.0% |
   calc_h_matrix:                          751.538   108.623   1.5% ||
    Apply H:                               642.915   627.873   8.8% |---|
     HMM T:                                 15.042    15.042   0.2% |
   diagonalize:                              5.662     5.662   0.1% |
   rotate_psi:                             132.458   132.458   1.8% ||
  calc. matrices:                         1813.402   537.125   7.5% |--|
   Apply H:                               1276.277  1246.339  17.4% |------|
    HMM T:                                  29.937    29.937   0.4% |
  diagonalize:                              49.763    49.763   0.7% |
  rotate_psi:                              265.785   265.785   3.7% ||
 Density:                                  474.052     0.021   0.0% |
  Atomic density matrices:                  42.014    42.014   0.6% |
  Mix:                                      56.516    56.516   0.8% |
  Multipole moments:                         0.193     0.193   0.0% |
  Pseudo density:                          375.308   369.165   5.2% |-|
   Symmetrize density:                       6.143     6.143   0.1% |
 Forces:                                   189.858   189.858   2.7% ||
 Hamiltonian:                              216.088     1.285   0.0% |
  Atomic:                                  102.248    44.618   0.6% |
   XC Correction:                           57.631    57.631   0.8% |
  Calculate atomic Hamiltonians:            36.651    36.651   0.5% |
  Communicate:                               1.979     1.979   0.0% |
  Poisson:                                   1.178     1.178   0.0% |
  XC 3D grid:                               72.745    72.745   1.0% |
 Orthonormalize:                            24.482     0.098   0.0% |
  calc_s_matrix:                             4.540     4.540   0.1% |
  inverse-cholesky:                          0.177     0.177   0.0% |
  projections:                              14.031    14.031   0.2% |
  rotate_psi_s:                              5.636     5.636   0.1% |
Set symmetry:                                0.023     0.023   0.0% |
Other:                                     779.962   779.962  10.9% |---|
-------------------------------------------------------------------
Total:                                              7161.187 100.0%

Memory usage: 585.55 MiB
Date: Tue May 19 06:52:14 2026
