
  ___ ___ ___ _ _ _  
 |   |   |_  | | | | 
 | | | | | . | | | | 
 |__ |  _|___|_____|  25.7.0
 |___|_|             

User:   luis-ochoa@luis-pc
Date:   Sat May  9 09:30:15 2026
Arch:   x86_64
Pid:    172605
CWD:    /home/luis-ochoa/Documents/Vscode/py/dft
Python: 3.12.3
gpaw:   /home/luis-ochoa/Documents/Vscode/py/dft/.venv/lib/python3.12/site-packages/gpaw
_gpaw:  /home/luis-ochoa/Documents/Vscode/py/dft/.venv/lib/python3.12/site-packages/
        _gpaw.cpython-312-x86_64-linux-gnu.so
ase:    /home/luis-ochoa/Documents/Vscode/py/dft/.venv/lib/python3.12/site-packages/ase (version 3.28.0)
numpy:  /home/luis-ochoa/Documents/Vscode/py/dft/.venv/lib/python3.12/site-packages/numpy (version 2.4.4)
scipy:  /home/luis-ochoa/Documents/Vscode/py/dft/.venv/lib/python3.12/site-packages/scipy (version 1.17.1)
libxc:  5.2.3
units:  Angstrom and eV
cores: 7
OpenMP: False
OMP_NUM_THREADS: 1

Reading from /home/luis-ochoa/Documents/Vscode/py/dft/calculations/top8_pbe/FASnBr3/02_scf/scf.gpw
Read dipole, energy, free_energy, magmom, magmoms
Reading input parameters:
  convergence: {bands: occupied,
                density: 0.0001,
                eigenstates: 4e-08,
                energy: 1e-08}
  kpts: {gamma: True,
         size: [4, 4, 4]}
  mixer: {backend: pulay,
          beta: 0.05,
          method: separate,
          nmaxold: 5,
          weight: 50.0}
  mode: {ecut: 450.00000000000006,
         name: pw}
  symmetry: off
  xc: PBE

Initialize ...

species:
  Sn:
    name: Tin
    id: d1329c6b410f1e0bd923643368775dcd
    Z: 50.0
    valence: 14
    core: 36
    charge: 0.0
    file: /home/luis-ochoa/.gpaw/gpaw-setups-24.11.0/Sn.PBE.gz
    compensation charges: {type: gauss,
                           rc: 0.38,
                           lmax: 2}
    cutoffs: {filter: 2.23,
              core: 2.35}
    projectors:
      #              energy  rcut
      - 5s(2.00)   -10.538   1.201
      - 5p(2.00)    -3.696   1.270
      - 4d(10.00)   -25.845   1.185
      -  s          16.674   1.201
      -  p          23.515   1.270
      -  d           1.367   1.185
  
    # Using partial waves for Sn as LCAO basis

  Br:
    name: Bromine
    id: 39dc90fcf3bf77f2d83386b416c2c495
    Z: 35.0
    valence: 7
    core: 28
    charge: 0.0
    file: /home/luis-ochoa/.gpaw/gpaw-setups-24.11.0/Br.PBE.gz
    compensation charges: {type: gauss,
                           rc: 0.35,
                           lmax: 2}
    cutoffs: {filter: 1.98,
              core: 2.38}
    projectors:
      #              energy  rcut
      - 4s(2.00)   -20.121   1.111
      - 4p(5.00)    -7.861   1.111
      -  s           7.091   1.111
      -  p          19.351   1.111
      -  d           0.000   1.111
  
    # Using partial waves for Br as LCAO basis

  C:
    name: Carbon
    id: 4aa54d4b901d75f77cc0ea3eec22967b
    Z: 6.0
    valence: 4
    core: 2
    charge: 0.0
    file: /home/luis-ochoa/.gpaw/gpaw-setups-24.11.0/C.PBE.gz
    compensation charges: {type: gauss,
                           rc: 0.20,
                           lmax: 2}
    cutoffs: {filter: 1.14,
              core: 1.14}
    projectors:
      #              energy  rcut
      - 2s(2.00)   -13.751   0.635
      - 2p(2.00)    -5.284   0.635
      -  s          13.461   0.635
      -  p          21.927   0.635
      -  d           0.000   0.635
  
    # Using partial waves for C as LCAO basis

  N:
    name: Nitrogen
    id: f7500608b86eaa90eef8b1d9a670dc53
    Z: 7.0
    valence: 5
    core: 2
    charge: 0.0
    file: /home/luis-ochoa/.gpaw/gpaw-setups-24.11.0/N.PBE.gz
    compensation charges: {type: gauss,
                           rc: 0.18,
                           lmax: 2}
    cutoffs: {filter: 1.11,
              core: 0.96}
    projectors:
      #              energy  rcut
      - 2s(2.00)   -18.583   0.603
      - 2p(3.00)    -7.089   0.529
      -  s           8.629   0.603
      -  p          20.123   0.529
      -  d           0.000   0.577
  
    # Using partial waves for N as LCAO basis

  H:
    name: Hydrogen
    id: d65de229564ff8ea4db303e23b6d1ecf
    Z: 1.0
    valence: 1
    core: 0
    charge: 0.0
    file: /home/luis-ochoa/.gpaw/gpaw-setups-24.11.0/H.PBE.gz
    compensation charges: {type: gauss,
                           rc: 0.15,
                           lmax: 2}
    cutoffs: {filter: 0.85,
              core: 0.53}
    projectors:
      #              energy  rcut
      - 1s(1.00)    -6.494   0.476
      -  s          20.717   0.476
      -  p           0.000   0.476
  
    # Using partial waves for H as LCAO basis

Reference energy: -384770.958430  # eV

Spin-paired calculation

Convergence criteria:
 Maximum [total energy] change in last 3 cyles: 1e-08 eV / valence electron
 Maximum integral of absolute [dens]ity change: 0.0001 electrons / valence electron
 Maximum integral of absolute [eigenst]ate change: 4e-08 eV^2 / valence electron
 Maximum number of scf [iter]ations: 333
 (Square brackets indicate name in SCF output, whereas a 'c' in
 the SCF output indicates the quantity has converged.)

Symmetries present (total): 1

  ( 1  0  0)
  ( 0  1  0)
  ( 0  0  1)

64 k-points: 4 x 4 x 4 Monkhorst-Pack grid + [1/8,1/8,1/8]
64 k-points in the irreducible part of the Brillouin zone
       k-points in crystal coordinates                weights
   0:    -0.25000000   -0.25000000   -0.25000000          1/64
   1:    -0.25000000   -0.25000000    0.00000000          1/64
   2:    -0.25000000   -0.25000000    0.25000000          1/64
   3:    -0.25000000   -0.25000000    0.50000000          1/64
   4:    -0.25000000    0.00000000   -0.25000000          1/64
   5:    -0.25000000    0.00000000    0.00000000          1/64
   6:    -0.25000000    0.00000000    0.25000000          1/64
   7:    -0.25000000    0.00000000    0.50000000          1/64
   8:    -0.25000000    0.25000000   -0.25000000          1/64
   9:    -0.25000000    0.25000000    0.00000000          1/64
          ...
  63:     0.50000000    0.50000000    0.50000000          1/64

Wave functions: Plane wave expansion
  Cutoff energy: 450.000 eV
  Number of coefficients (min, max): 4515, 4632
  Pulay-stress correction: 0.000000 eV/Ang^3 (de/decut=0.000000)
  Using Numpy's FFT
  ScaLapack parameters: grid=1x1, blocksize=None
  Wavefunction extrapolation:
    Improved wavefunction reuse through dual PAW basis 

Occupation numbers: Fermi-Dirac:
  width: 0.1000  # eV
 

Eigensolver
   Davidson(niter=2) 

Densities:
  Coarse grid: 30*30*30 grid
  Fine grid: 60*60*60 grid
  Total Charge: 0.000000 

Density mixing:
  Method: separate
  Backend: pulay
  Linear mixing parameter: 0.05
  old densities: 5
  Damping of long wavelength oscillations: 50 

Hamiltonian:
  XC and Coulomb potentials evaluated on a 60*60*60 grid
  Using the PBE Exchange-Correlation functional
  External potential:
    NoExternalPotential
 

XC parameters: PBE with 2 nearest neighbor stencil

Memory estimate:
  Process memory now: 400.48 MiB
  Calculator: 60.16 MiB
    Density: 17.09 MiB
      Arrays: 5.36 MiB
      Localized functions: 9.68 MiB
      Mixer: 2.06 MiB
    Hamiltonian: 3.80 MiB
      Arrays: 3.50 MiB
      XC: 0.00 MiB
      Poisson: 0.00 MiB
      vbar: 0.30 MiB
    Wavefunctions: 39.27 MiB
      Arrays psit_nG: 23.54 MiB
      Eigensolver: 3.18 MiB
      Projections: 0.61 MiB
      Projectors: 10.27 MiB
      PW-descriptor: 1.67 MiB

Total number of cores used: 7
Parallelization over k-points: 7

Number of atoms: 12
Number of atomic orbitals: 38
Number of bands in calculation: 37
Number of valence electrons: 54
Bands to converge: occupied

... initialized

Input parameters:
  kpts: {gamma: True,
         size: [8, 8, 8]}

Initialize ...

species:
  Sn:
    name: Tin
    id: d1329c6b410f1e0bd923643368775dcd
    Z: 50.0
    valence: 14
    core: 36
    charge: 0.0
    file: /home/luis-ochoa/.gpaw/gpaw-setups-24.11.0/Sn.PBE.gz
    compensation charges: {type: gauss,
                           rc: 0.38,
                           lmax: 2}
    cutoffs: {filter: 2.23,
              core: 2.35}
    projectors:
      #              energy  rcut
      - 5s(2.00)   -10.538   1.201
      - 5p(2.00)    -3.696   1.270
      - 4d(10.00)   -25.845   1.185
      -  s          16.674   1.201
      -  p          23.515   1.270
      -  d           1.367   1.185
  
    # Using partial waves for Sn as LCAO basis

  Br:
    name: Bromine
    id: 39dc90fcf3bf77f2d83386b416c2c495
    Z: 35.0
    valence: 7
    core: 28
    charge: 0.0
    file: /home/luis-ochoa/.gpaw/gpaw-setups-24.11.0/Br.PBE.gz
    compensation charges: {type: gauss,
                           rc: 0.35,
                           lmax: 2}
    cutoffs: {filter: 1.98,
              core: 2.38}
    projectors:
      #              energy  rcut
      - 4s(2.00)   -20.121   1.111
      - 4p(5.00)    -7.861   1.111
      -  s           7.091   1.111
      -  p          19.351   1.111
      -  d           0.000   1.111
  
    # Using partial waves for Br as LCAO basis

  C:
    name: Carbon
    id: 4aa54d4b901d75f77cc0ea3eec22967b
    Z: 6.0
    valence: 4
    core: 2
    charge: 0.0
    file: /home/luis-ochoa/.gpaw/gpaw-setups-24.11.0/C.PBE.gz
    compensation charges: {type: gauss,
                           rc: 0.20,
                           lmax: 2}
    cutoffs: {filter: 1.14,
              core: 1.14}
    projectors:
      #              energy  rcut
      - 2s(2.00)   -13.751   0.635
      - 2p(2.00)    -5.284   0.635
      -  s          13.461   0.635
      -  p          21.927   0.635
      -  d           0.000   0.635
  
    # Using partial waves for C as LCAO basis

  N:
    name: Nitrogen
    id: f7500608b86eaa90eef8b1d9a670dc53
    Z: 7.0
    valence: 5
    core: 2
    charge: 0.0
    file: /home/luis-ochoa/.gpaw/gpaw-setups-24.11.0/N.PBE.gz
    compensation charges: {type: gauss,
                           rc: 0.18,
                           lmax: 2}
    cutoffs: {filter: 1.11,
              core: 0.96}
    projectors:
      #              energy  rcut
      - 2s(2.00)   -18.583   0.603
      - 2p(3.00)    -7.089   0.529
      -  s           8.629   0.603
      -  p          20.123   0.529
      -  d           0.000   0.577
  
    # Using partial waves for N as LCAO basis

  H:
    name: Hydrogen
    id: d65de229564ff8ea4db303e23b6d1ecf
    Z: 1.0
    valence: 1
    core: 0
    charge: 0.0
    file: /home/luis-ochoa/.gpaw/gpaw-setups-24.11.0/H.PBE.gz
    compensation charges: {type: gauss,
                           rc: 0.15,
                           lmax: 2}
    cutoffs: {filter: 0.85,
              core: 0.53}
    projectors:
      #              energy  rcut
      - 1s(1.00)    -6.494   0.476
      -  s          20.717   0.476
      -  p           0.000   0.476
  
    # Using partial waves for H as LCAO basis

Reference energy: -384770.958430  # eV

Spin-paired calculation

Convergence criteria:
 Maximum [total energy] change in last 3 cyles: 1e-08 eV / valence electron
 Maximum integral of absolute [dens]ity change: 0.0001 electrons / valence electron
 Maximum integral of absolute [eigenst]ate change: 4e-08 eV^2 / valence electron
 Maximum number of scf [iter]ations: 333
 (Square brackets indicate name in SCF output, whereas a 'c' in
 the SCF output indicates the quantity has converged.)

Symmetries present (total): 1

  ( 1  0  0)
  ( 0  1  0)
  ( 0  0  1)

512 k-points: 8 x 8 x 8 Monkhorst-Pack grid + [1/16,1/16,1/16]
512 k-points in the irreducible part of the Brillouin zone
       k-points in crystal coordinates                weights
   0:    -0.37500000   -0.37500000   -0.37500000          1/512
   1:    -0.37500000   -0.37500000   -0.25000000          1/512
   2:    -0.37500000   -0.37500000   -0.12500000          1/512
   3:    -0.37500000   -0.37500000    0.00000000          1/512
   4:    -0.37500000   -0.37500000    0.12500000          1/512
   5:    -0.37500000   -0.37500000    0.25000000          1/512
   6:    -0.37500000   -0.37500000    0.37500000          1/512
   7:    -0.37500000   -0.37500000    0.50000000          1/512
   8:    -0.37500000   -0.25000000   -0.37500000          1/512
   9:    -0.37500000   -0.25000000   -0.25000000          1/512
          ...
 511:     0.50000000    0.50000000    0.50000000          1/512

Wave functions: Plane wave expansion
  Cutoff energy: 450.000 eV
  Number of coefficients (min, max): 4515, 4632
  Pulay-stress correction: 0.000000 eV/Ang^3 (de/decut=0.000000)
  Using Numpy's FFT
  ScaLapack parameters: grid=1x1, blocksize=None
  Wavefunction extrapolation:
    Improved wavefunction reuse through dual PAW basis 

Occupation numbers: Fermi-Dirac:
  width: 0.1000  # eV
 

Eigensolver
   Davidson(niter=2) 

Density mixing:
  Method: separate
  Backend: pulay
  Linear mixing parameter: 0.05
  old densities: 5
  Damping of long wavelength oscillations: 50 

XC parameters: PBE with 2 nearest neighbor stencil

Memory estimate:
  Process memory now: 400.48 MiB
  Calculator: 309.65 MiB
    Density: 17.09 MiB
      Arrays: 5.36 MiB
      Localized functions: 9.68 MiB
      Mixer: 2.06 MiB
    Hamiltonian: 3.80 MiB
      Arrays: 3.50 MiB
      XC: 0.00 MiB
      Poisson: 0.00 MiB
      vbar: 0.30 MiB
    Wavefunctions: 288.75 MiB
      Arrays psit_nG: 190.90 MiB
      Eigensolver: 3.18 MiB
      Projections: 4.99 MiB
      Projectors: 83.50 MiB
      PW-descriptor: 6.19 MiB

Total number of cores used: 7
Parallelization over k-points: 7

Number of atoms: 12
Number of atomic orbitals: 38
Number of bands in calculation: 37
Number of valence electrons: 54
Bands to converge: occupied

... initialized

Initializing position-dependent things.

Creating initial wave functions:
  37 bands from LCAO basis set

     .--------------.  
    /|      Br      |  
   Br|              |  
  /  |              |  
 *   Br   H     Sn  |  
 |   | H  C    H    |  
 |   |H N    NH     |  
 |   .--------------.  
 |  /              /   
 | /              /    
 |/              /     
 *--------------*      

Atomic positions and initial magnetic moments

Positions:
   0 Sn    -0.000000    0.000000   -0.210391    ( 0.0000,  0.0000,  0.0000)
   1 Br     2.970000   -0.000006   -0.815766    ( 0.0000,  0.0000,  0.0000)
   2 Br     0.000000    2.969997   -0.254717    ( 0.0000,  0.0000,  0.0000)
   3 Br     0.000000   -0.000005    2.832751    ( 0.0000,  0.0000,  0.0000)
   4 C      2.970000    2.969995    3.462130    ( 0.0000,  0.0000,  0.0000)
   5 N      1.801692    2.970001    2.740949    ( 0.0000,  0.0000,  0.0000)
   6 N      4.138308    2.970000    2.740950    ( 0.0000,  0.0000,  0.0000)
   7 H      2.970000    2.969970    4.567456    ( 0.0000,  0.0000,  0.0000)
   8 H      1.226125    3.768484    3.117330    ( 0.0000,  0.0000,  0.0000)
   9 H      1.226119    2.171539    3.117365    ( 0.0000,  0.0000,  0.0000)
  10 H      4.713875    3.768485    3.117330    ( 0.0000,  0.0000,  0.0000)
  11 H      4.713881    2.171539    3.117366    ( 0.0000,  0.0000,  0.0000)

Unit cell:
           periodic     x           y           z      points  spacing
  1. axis:    yes    5.940000    0.000000    0.000000    30     0.1980
  2. axis:    yes    0.000000    5.940000    0.000000    30     0.1980
  3. axis:    yes    0.000000    0.000000    5.940000    30     0.1980

  Lengths:   5.940000   5.940000   5.940000
  Angles:   90.000000  90.000000  90.000000

Effective grid spacing dv^(1/3) = 0.1980

     iter     time        total  log10-change:
                         energy   eigst   dens
iter:   1 09:31:22   -51.644482
iter:   2 09:31:59   -51.755217   -1.33  -2.30
iter:   3 09:32:36   -51.761184   -2.46  -2.94
iter:   4 09:33:13   -51.761477   -3.53  -3.08
iter:   5 09:33:49   -51.760641   -4.61  -3.07
iter:   6 09:34:26   -51.760557   -5.50  -3.43
iter:   7 09:35:03   -51.760655   -6.15  -3.51
iter:   8 09:35:40   -51.760577   -6.86  -3.74
iter:   9 09:36:17   -51.760608   -6.79  -3.81
iter:  10 09:36:54   -51.760609   -7.90c -4.28c
iter:  11 09:37:31   -51.760611   -8.02c -4.40c
iter:  12 09:38:07   -51.760625   -8.21c -4.54c
iter:  13 09:38:44   -51.760626   -9.78c -5.01c
iter:  14 09:39:21   -51.760628   -9.82c -5.05c
iter:  15 09:39:58   -51.760628  -10.03c -5.19c
iter:  16 09:40:35   -51.760626   -9.78c -5.31c
iter:  17 09:41:11   -51.760626  -11.03c -5.53c
iter:  18 09:41:48   -51.760626c -10.83c -5.57c

Converged after 18 iterations.

Dipole moment: (-0.000002, 0.000457, 20.238726) |e|*Ang

Energy contributions relative to reference atoms: (reference = -384770.958430)

Kinetic:        +49.087940
Potential:      -52.240907
External:        +0.000000
XC:             -48.388295
Entropy (-ST):   -0.022737
Local:           -0.207997
SIC:             +0.000000
--------------------------
Free energy:    -51.771995
Extrapolated:   -51.760626

Showing only first 2 kpts
 Kpt  Band  Eigenvalues  Occupancy
  0    25      0.21528    1.99996
  0    26      0.86199    1.97347
  0    27      1.78720    0.01417
  0    28      3.23827    0.00000

  1    25      0.19898    1.99996
  1    26      0.65761    1.99652
  1    27      1.77602    0.01583
  1    28      3.58321    0.00000


Fermi level: 1.29292

No gap
No difference between direct/indirect transitions
Writing to /home/luis-ochoa/Documents/Vscode/py/dft/calculations/top8_pbe/FASnBr3/04_dos/dos.gpw (mode='')

Timing:                              incl.     excl.
-----------------------------------------------------------
Hamiltonian:                         0.219     0.002   0.0% |
 Atomic:                             0.090     0.040   0.0% |
  XC Correction:                     0.050     0.050   0.0% |
 Calculate atomic Hamiltonians:      0.049     0.049   0.0% |
 Communicate:                        0.000     0.000   0.0% |
 Poisson:                            0.002     0.002   0.0% |
 XC 3D grid:                         0.076     0.076   0.0% |
LCAO initialization:                28.571     0.332   0.0% |
 LCAO eigensolver:                   0.429     0.003   0.0% |
  Calculate projections:             0.032     0.032   0.0% |
  DenseAtomicCorrection:             0.072     0.072   0.0% |
  Distribute overlap matrix:         0.002     0.002   0.0% |
  Orbital Layouts:                   0.049     0.049   0.0% |
  Potential matrix:                  0.239     0.239   0.0% |
  Sum over cells:                    0.031     0.031   0.0% |
 LCAO to grid:                      24.811    24.811   3.6% ||
 Set positions (LCAO WFS):           2.999     0.351   0.1% |
  Basic WFS set positions:           0.001     0.001   0.0% |
  Basis functions set positions:     0.000     0.000   0.0% |
  P tci:                             1.440     1.440   0.2% |
  ST tci:                            1.160     1.160   0.2% |
  mktci:                             0.047     0.047   0.0% |
PWDescriptor:                        0.078     0.078   0.0% |
Redistribute:                        0.000     0.000   0.0% |
SCF-cycle:                         662.724    35.295   5.1% |-|
 Davidson:                         577.854   114.785  16.6% |------|
  Apply H:                          79.510    77.638  11.2% |---|
   HMM T:                            1.872     1.872   0.3% |
  Subspace diag:                   112.072     0.157   0.0% |
   calc_h_matrix:                   93.886    14.287   2.1% ||
    Apply H:                        79.599    77.712  11.2% |---|
     HMM T:                          1.887     1.887   0.3% |
   diagonalize:                      0.786     0.786   0.1% |
   rotate_psi:                      17.243    17.243   2.5% ||
  calc. matrices:                  229.847    70.845  10.2% |---|
   Apply H:                        159.002   155.238  22.4% |--------|
    HMM T:                           3.764     3.764   0.5% |
  diagonalize:                       7.019     7.019   1.0% |
  rotate_psi:                       34.620    34.620   5.0% |-|
 Density:                           43.498     0.000   0.0% |
  Atomic density matrices:           0.496     0.496   0.1% |
  Mix:                               1.146     1.146   0.2% |
  Multipole moments:                 0.006     0.006   0.0% |
  Pseudo density:                   41.850    41.849   6.0% |-|
   Symmetrize density:               0.000     0.000   0.0% |
 Hamiltonian:                        3.846     0.024   0.0% |
  Atomic:                            1.448     0.591   0.1% |
   XC Correction:                    0.858     0.858   0.1% |
  Calculate atomic Hamiltonians:     0.886     0.886   0.1% |
  Communicate:                       0.001     0.001   0.0% |
  Poisson:                           0.027     0.027   0.0% |
  XC 3D grid:                        1.460     1.460   0.2% |
 Orthonormalize:                     2.230     0.009   0.0% |
  calc_s_matrix:                     0.413     0.413   0.1% |
  inverse-cholesky:                  0.015     0.015   0.0% |
  projections:                       1.291     1.291   0.2% |
  rotate_psi_s:                      0.502     0.502   0.1% |
Set symmetry:                        0.000     0.000   0.0% |
Other:                               1.619     1.619   0.2% |
-----------------------------------------------------------
Total:                                       693.212 100.0%

Memory usage: 637.88 MiB
Date: Sat May  9 09:41:48 2026
