
  ___ ___ ___ _ _ _  
 |   |   |_  | | | | 
 | | | | | . | | | | 
 |__ |  _|___|_____|  25.7.0
 |___|_|             

User:   luis-ochoa@luis-pc
Date:   Mon May 18 22:42:43 2026
Arch:   x86_64
Pid:    63922
CWD:    /home/luis-ochoa/Documents/Vscode/py/dft
Python: 3.12.3
gpaw:   /home/luis-ochoa/Documents/Vscode/py/dft/.venv/lib/python3.12/site-packages/gpaw
_gpaw:  /home/luis-ochoa/Documents/Vscode/py/dft/.venv/lib/python3.12/site-packages/
        _gpaw.cpython-312-x86_64-linux-gnu.so
ase:    /home/luis-ochoa/Documents/Vscode/py/dft/.venv/lib/python3.12/site-packages/ase (version 3.28.0)
numpy:  /home/luis-ochoa/Documents/Vscode/py/dft/.venv/lib/python3.12/site-packages/numpy (version 2.4.4)
scipy:  /home/luis-ochoa/Documents/Vscode/py/dft/.venv/lib/python3.12/site-packages/scipy (version 1.17.1)
libxc:  5.2.3
units:  Angstrom and eV
cores: 7
OpenMP: False
OMP_NUM_THREADS: 1

Reading from /home/luis-ochoa/Documents/Vscode/py/dft/calculations/top8_r2scan/MASnI3/02_scf/scf.gpw
Read dipole, energy, free_energy, magmom, magmoms
Reading input parameters:
  convergence: {bands: occupied,
                density: 0.0001,
                eigenstates: 4e-08,
                energy: 1e-08}
  kpts: {gamma: True,
         size: [4, 4, 4]}
  mixer: {backend: pulay,
          beta: 0.05,
          method: separate,
          nmaxold: 5,
          weight: 50.0}
  mode: {ecut: 450.00000000000006,
         name: pw}
  symmetry: off
  xc: PBE

Initialize ...

species:
  Sn:
    name: Tin
    id: d1329c6b410f1e0bd923643368775dcd
    Z: 50.0
    valence: 14
    core: 36
    charge: 0.0
    file: /home/luis-ochoa/.gpaw/gpaw-setups-24.11.0/Sn.PBE.gz
    compensation charges: {type: gauss,
                           rc: 0.38,
                           lmax: 2}
    cutoffs: {filter: 2.23,
              core: 2.35}
    projectors:
      #              energy  rcut
      - 5s(2.00)   -10.538   1.201
      - 5p(2.00)    -3.696   1.270
      - 4d(10.00)   -25.845   1.185
      -  s          16.674   1.201
      -  p          23.515   1.270
      -  d           1.367   1.185
  
    # Using partial waves for Sn as LCAO basis

  I:
    name: Iodine
    id: 91405a398e4dfe788ff04f57531604ec
    Z: 53.0
    valence: 7
    core: 46
    charge: 0.0
    file: /home/luis-ochoa/.gpaw/gpaw-setups-24.11.0/I.PBE.gz
    compensation charges: {type: gauss,
                           rc: 0.37,
                           lmax: 2}
    cutoffs: {filter: 2.06,
              core: 2.90}
    projectors:
      #              energy  rcut
      - 5s(2.00)   -17.382   1.164
      - 5p(5.00)    -7.088   1.164
      -  s           9.829   1.164
      -  p          20.123   1.164
      -  d           0.000   1.164
  
    # Using partial waves for I as LCAO basis

  C:
    name: Carbon
    id: 4aa54d4b901d75f77cc0ea3eec22967b
    Z: 6.0
    valence: 4
    core: 2
    charge: 0.0
    file: /home/luis-ochoa/.gpaw/gpaw-setups-24.11.0/C.PBE.gz
    compensation charges: {type: gauss,
                           rc: 0.20,
                           lmax: 2}
    cutoffs: {filter: 1.14,
              core: 1.14}
    projectors:
      #              energy  rcut
      - 2s(2.00)   -13.751   0.635
      - 2p(2.00)    -5.284   0.635
      -  s          13.461   0.635
      -  p          21.927   0.635
      -  d           0.000   0.635
  
    # Using partial waves for C as LCAO basis

  N:
    name: Nitrogen
    id: f7500608b86eaa90eef8b1d9a670dc53
    Z: 7.0
    valence: 5
    core: 2
    charge: 0.0
    file: /home/luis-ochoa/.gpaw/gpaw-setups-24.11.0/N.PBE.gz
    compensation charges: {type: gauss,
                           rc: 0.18,
                           lmax: 2}
    cutoffs: {filter: 1.11,
              core: 0.96}
    projectors:
      #              energy  rcut
      - 2s(2.00)   -18.583   0.603
      - 2p(3.00)    -7.089   0.529
      -  s           8.629   0.603
      -  p          20.123   0.529
      -  d           0.000   0.577
  
    # Using partial waves for N as LCAO basis

  H:
    name: Hydrogen
    id: d65de229564ff8ea4db303e23b6d1ecf
    Z: 1.0
    valence: 1
    core: 0
    charge: 0.0
    file: /home/luis-ochoa/.gpaw/gpaw-setups-24.11.0/H.PBE.gz
    compensation charges: {type: gauss,
                           rc: 0.15,
                           lmax: 2}
    cutoffs: {filter: 0.85,
              core: 0.53}
    projectors:
      #              energy  rcut
      - 1s(1.00)    -6.494   0.476
      -  s          20.717   0.476
      -  p           0.000   0.476
  
    # Using partial waves for H as LCAO basis

Reference energy: -751217.370899  # eV

Spin-paired calculation

Convergence criteria:
 Maximum [total energy] change in last 3 cyles: 1e-08 eV / valence electron
 Maximum integral of absolute [dens]ity change: 0.0001 electrons / valence electron
 Maximum integral of absolute [eigenst]ate change: 4e-08 eV^2 / valence electron
 Maximum number of scf [iter]ations: 333
 (Square brackets indicate name in SCF output, whereas a 'c' in
 the SCF output indicates the quantity has converged.)

Symmetries present (total): 1

  ( 1  0  0)
  ( 0  1  0)
  ( 0  0  1)

64 k-points: 4 x 4 x 4 Monkhorst-Pack grid + [1/8,1/8,1/8]
64 k-points in the irreducible part of the Brillouin zone
       k-points in crystal coordinates                weights
   0:    -0.25000000   -0.25000000   -0.25000000          1/64
   1:    -0.25000000   -0.25000000    0.00000000          1/64
   2:    -0.25000000   -0.25000000    0.25000000          1/64
   3:    -0.25000000   -0.25000000    0.50000000          1/64
   4:    -0.25000000    0.00000000   -0.25000000          1/64
   5:    -0.25000000    0.00000000    0.00000000          1/64
   6:    -0.25000000    0.00000000    0.25000000          1/64
   7:    -0.25000000    0.00000000    0.50000000          1/64
   8:    -0.25000000    0.25000000   -0.25000000          1/64
   9:    -0.25000000    0.25000000    0.00000000          1/64
          ...
  63:     0.50000000    0.50000000    0.50000000          1/64

Wave functions: Plane wave expansion
  Cutoff energy: 450.000 eV
  Number of coefficients (min, max): 5222, 5294
  Pulay-stress correction: 0.000000 eV/Ang^3 (de/decut=0.000000)
  Using Numpy's FFT
  ScaLapack parameters: grid=1x1, blocksize=None
  Wavefunction extrapolation:
    Improved wavefunction reuse through dual PAW basis 

Occupation numbers: Fermi-Dirac:
  width: 0.1000  # eV
 

Eigensolver
   Davidson(niter=2) 

Densities:
  Coarse grid: 32*32*32 grid
  Fine grid: 64*64*64 grid
  Total Charge: 0.000000 

Density mixing:
  Method: separate
  Backend: pulay
  Linear mixing parameter: 0.05
  old densities: 5
  Damping of long wavelength oscillations: 50 

Hamiltonian:
  XC and Coulomb potentials evaluated on a 64*64*64 grid
  Using the PBE Exchange-Correlation functional
  External potential:
    NoExternalPotential
 

XC parameters: PBE with 2 nearest neighbor stencil

Memory estimate:
  Process memory now: 180.34 MiB
  Calculator: 67.31 MiB
    Density: 20.25 MiB
      Arrays: 6.50 MiB
      Localized functions: 11.25 MiB
      Mixer: 2.50 MiB
    Hamiltonian: 4.59 MiB
      Arrays: 4.25 MiB
      XC: 0.00 MiB
      Poisson: 0.00 MiB
      vbar: 0.34 MiB
    Wavefunctions: 42.48 MiB
      Arrays psit_nG: 24.72 MiB
      Eigensolver: 3.33 MiB
      Projections: 0.53 MiB
      Projectors: 11.93 MiB
      PW-descriptor: 1.98 MiB

Total number of cores used: 7
Parallelization over k-points: 7

Number of atoms: 12
Number of atomic orbitals: 35
Number of bands in calculation: 34
Number of valence electrons: 50
Bands to converge: occupied

... initialized

Input parameters:
  fixdensity: True
  kpts: [[0.5        0.5        0.5       ],
         [0.50496563 0.5        0.5       ],
         [0.49503437 0.5        0.5       ],
         ...,
         [0.5        0.5        0.47517183],
         [0.5        0.5        0.52979381],
         [0.5        0.5        0.47020619]]

Initialize ...

species:
  Sn:
    name: Tin
    id: d1329c6b410f1e0bd923643368775dcd
    Z: 50.0
    valence: 14
    core: 36
    charge: 0.0
    file: /home/luis-ochoa/.gpaw/gpaw-setups-24.11.0/Sn.PBE.gz
    compensation charges: {type: gauss,
                           rc: 0.38,
                           lmax: 2}
    cutoffs: {filter: 2.23,
              core: 2.35}
    projectors:
      #              energy  rcut
      - 5s(2.00)   -10.538   1.201
      - 5p(2.00)    -3.696   1.270
      - 4d(10.00)   -25.845   1.185
      -  s          16.674   1.201
      -  p          23.515   1.270
      -  d           1.367   1.185
  
    # Using partial waves for Sn as LCAO basis

  I:
    name: Iodine
    id: 91405a398e4dfe788ff04f57531604ec
    Z: 53.0
    valence: 7
    core: 46
    charge: 0.0
    file: /home/luis-ochoa/.gpaw/gpaw-setups-24.11.0/I.PBE.gz
    compensation charges: {type: gauss,
                           rc: 0.37,
                           lmax: 2}
    cutoffs: {filter: 2.06,
              core: 2.90}
    projectors:
      #              energy  rcut
      - 5s(2.00)   -17.382   1.164
      - 5p(5.00)    -7.088   1.164
      -  s           9.829   1.164
      -  p          20.123   1.164
      -  d           0.000   1.164
  
    # Using partial waves for I as LCAO basis

  C:
    name: Carbon
    id: 4aa54d4b901d75f77cc0ea3eec22967b
    Z: 6.0
    valence: 4
    core: 2
    charge: 0.0
    file: /home/luis-ochoa/.gpaw/gpaw-setups-24.11.0/C.PBE.gz
    compensation charges: {type: gauss,
                           rc: 0.20,
                           lmax: 2}
    cutoffs: {filter: 1.14,
              core: 1.14}
    projectors:
      #              energy  rcut
      - 2s(2.00)   -13.751   0.635
      - 2p(2.00)    -5.284   0.635
      -  s          13.461   0.635
      -  p          21.927   0.635
      -  d           0.000   0.635
  
    # Using partial waves for C as LCAO basis

  N:
    name: Nitrogen
    id: f7500608b86eaa90eef8b1d9a670dc53
    Z: 7.0
    valence: 5
    core: 2
    charge: 0.0
    file: /home/luis-ochoa/.gpaw/gpaw-setups-24.11.0/N.PBE.gz
    compensation charges: {type: gauss,
                           rc: 0.18,
                           lmax: 2}
    cutoffs: {filter: 1.11,
              core: 0.96}
    projectors:
      #              energy  rcut
      - 2s(2.00)   -18.583   0.603
      - 2p(3.00)    -7.089   0.529
      -  s           8.629   0.603
      -  p          20.123   0.529
      -  d           0.000   0.577
  
    # Using partial waves for N as LCAO basis

  H:
    name: Hydrogen
    id: d65de229564ff8ea4db303e23b6d1ecf
    Z: 1.0
    valence: 1
    core: 0
    charge: 0.0
    file: /home/luis-ochoa/.gpaw/gpaw-setups-24.11.0/H.PBE.gz
    compensation charges: {type: gauss,
                           rc: 0.15,
                           lmax: 2}
    cutoffs: {filter: 0.85,
              core: 0.53}
    projectors:
      #              energy  rcut
      - 1s(1.00)    -6.494   0.476
      -  s          20.717   0.476
      -  p           0.000   0.476
  
    # Using partial waves for H as LCAO basis

Reference energy: -751217.370899  # eV

Spin-paired calculation

Convergence criteria:
 Maximum [total energy] change in last 3 cyles: 1e-08 eV / valence electron
 Maximum integral of absolute [dens]ity change: 0.0001 electrons / valence electron
 Maximum integral of absolute [eigenst]ate change: 4e-08 eV^2 / valence electron
 Maximum number of scf [iter]ations: 333
 (Square brackets indicate name in SCF output, whereas a 'c' in
 the SCF output indicates the quantity has converged.)

Symmetries present (total): 1

  ( 1  0  0)
  ( 0  1  0)
  ( 0  0  1)

37 k-points
37 k-points in the irreducible part of the Brillouin zone
       k-points in crystal coordinates                weights
   0:     0.50000000    0.50000000    0.50000000       0.02702703
   1:     0.50496563    0.50000000    0.50000000       0.02702703
   2:     0.49503437    0.50000000    0.50000000       0.02702703
   3:     0.50993127    0.50000000    0.50000000       0.02702703
   4:     0.49006873    0.50000000    0.50000000       0.02702703
   5:     0.51489690    0.50000000    0.50000000       0.02702703
   6:     0.48510310    0.50000000    0.50000000       0.02702703
   7:     0.51986254    0.50000000    0.50000000       0.02702703
   8:     0.48013746    0.50000000    0.50000000       0.02702703
   9:     0.52482817    0.50000000    0.50000000       0.02702703
          ...
  36:     0.50000000    0.50000000    0.47020619       0.02702703

Wave functions: Plane wave expansion
  Cutoff energy: 450.000 eV
  Number of coefficients (min, max): 5232, 5284
  Pulay-stress correction: 0.000000 eV/Ang^3 (de/decut=0.000000)
  Using Numpy's FFT
  ScaLapack parameters: grid=1x1, blocksize=None
  Wavefunction extrapolation:
    Improved wavefunction reuse through dual PAW basis 

Occupation numbers: Fermi-Dirac:
  width: 0.1000  # eV
 

Eigensolver
   Davidson(niter=2) 

No density mixing

XC parameters: PBE with 2 nearest neighbor stencil

Memory estimate:
  Process memory now: 204.74 MiB
  Calculator: 50.40 MiB
    Density: 20.25 MiB
      Arrays: 6.50 MiB
      Localized functions: 11.25 MiB
      Mixer: 2.50 MiB
    Hamiltonian: 4.59 MiB
      Arrays: 4.25 MiB
      XC: 0.00 MiB
      Poisson: 0.00 MiB
      vbar: 0.34 MiB
    Wavefunctions: 25.56 MiB
      Arrays psit_nG: 13.71 MiB
      Eigensolver: 3.32 MiB
      Projections: 0.29 MiB
      Projectors: 6.59 MiB
      PW-descriptor: 1.65 MiB

Total number of cores used: 7
Parallelization over k-points: 7

Number of atoms: 12
Number of atomic orbitals: 35
Number of bands in calculation: 34
Number of valence electrons: 50
Bands to converge: occupied

... initialized

Initializing position-dependent things.

Creating initial wave functions:
  34 bands from LCAO basis set

     .------I-------Sn 
    /|              |  
   / |           I  |  
  /  |              |  
 *   |     H H      I  
 |   |      N H     |  
 |   | H            |  
 |   |   C          |  
 |   .----H---------.  
 |  /              /   
 | /              /    
 |/              /     
 *--------------*      

Atomic positions and initial magnetic moments

Positions:
   0 Sn    -0.046695   -0.046694   -0.046691    ( 0.0000,  0.0000,  0.0000)
   1 I      2.977522   -0.017008   -0.274292    ( 0.0000,  0.0000,  0.0000)
   2 I     -0.274292    2.977517   -0.017010    ( 0.0000,  0.0000,  0.0000)
   3 I     -0.017011   -0.274295    2.977516    ( 0.0000,  0.0000,  0.0000)
   4 C      2.723947    2.723947    2.723946    ( 0.0000,  0.0000,  0.0000)
   5 N      3.584407    3.584404    3.584411    ( 0.0000,  0.0000,  0.0000)
   6 H      3.308127    1.858830    2.392164    ( 0.0000,  0.0000,  0.0000)
   7 H      2.392168    3.308132    1.858830    ( 0.0000,  0.0000,  0.0000)
   8 H      1.858838    2.392162    3.308134    ( 0.0000,  0.0000,  0.0000)
   9 H      3.060101    4.372886    4.029305    ( 0.0000,  0.0000,  0.0000)
  10 H      4.372887    4.029295    3.060104    ( 0.0000,  0.0000,  0.0000)
  11 H      4.029306    3.060101    4.372891    ( 0.0000,  0.0000,  0.0000)

Unit cell:
           periodic     x           y           z      points  spacing
  1. axis:    yes    6.240000    0.000000    0.000000    32     0.1950
  2. axis:    yes    0.000000    6.240000    0.000000    32     0.1950
  3. axis:    yes    0.000000    0.000000    6.240000    32     0.1950

  Lengths:   6.240000   6.240000   6.240000
  Angles:   90.000000  90.000000  90.000000

Effective grid spacing dv^(1/3) = 0.1950

     iter     time        total  log10-change:
                         energy   eigst   dens
iter:   1 22:42:51   -42.870932               c
iter:   2 22:42:54   -42.955782   -1.38       c
iter:   3 22:42:57   -42.959764   -2.54       c
iter:   4 22:43:00   -42.960102   -3.62       c
iter:   5 22:43:03   -42.960137   -4.58       c
iter:   6 22:43:06   -42.960141   -5.44       c
iter:   7 22:43:09   -42.960142   -6.23       c
iter:   8 22:43:12   -42.960142   -6.97       c
iter:   9 22:43:15   -42.960142c  -7.68c      c

Converged after 9 iterations.

Dipole moment: (14.534929, 14.534815, 14.534714) |e|*Ang

Energy contributions relative to reference atoms: (reference = -751217.370899)

Kinetic:        +63.485242
Potential:      -61.532302
External:        +0.000000
XC:             -44.772063
Entropy (-ST):   -0.136827
Local:           -0.072606
SIC:             +0.000000
--------------------------
Free energy:    -43.028555
Extrapolated:   -42.960142

Showing only first 2 kpts
 Kpt  Band  Eigenvalues  Occupancy
  0    23      1.01622    2.00000
  0    24      2.60799    1.78926
  0    25      3.10646    0.10979
  0    26      3.21204    0.03962

  1    23      1.01614    2.00000
  1    24      2.60653    1.79200
  1    25      3.10670    0.10954
  1    26      3.20766    0.04135


Fermi level: 2.82188

Gap: 0.498 eV
Transition (v -> c):
  (s=0, k=0, n=24, [0.50, 0.50, 0.50]) -> (s=0, k=0, n=25, [0.50, 0.50, 0.50])
No difference between direct/indirect transitions
Writing to /home/luis-ochoa/Documents/Vscode/py/dft/calculations/top8_r2scan/MASnI3/10_effective_masses/effmass_fine.gpw (mode='')

Timing:                              incl.     excl.
-----------------------------------------------------------
Hamiltonian:                         0.259     0.002   0.0% |
 Atomic:                             0.101     0.050   0.2% |
  XC Correction:                     0.051     0.051   0.2% |
 Calculate atomic Hamiltonians:      0.059     0.059   0.2% |
 Communicate:                        0.000     0.000   0.0% |
 Poisson:                            0.001     0.001   0.0% |
 XC 3D grid:                         0.096     0.096   0.3% |
LCAO initialization:                 2.719     0.335   1.1% |
 LCAO eigensolver:                   0.211     0.000   0.0% |
  Calculate projections:             0.002     0.002   0.0% |
  DenseAtomicCorrection:             0.005     0.005   0.0% |
  Distribute overlap matrix:         0.000     0.000   0.0% |
  Orbital Layouts:                   0.003     0.003   0.0% |
  Potential matrix:                  0.198     0.198   0.6% |
  Sum over cells:                    0.003     0.003   0.0% |
 LCAO to grid:                       1.806     1.806   5.7% |-|
 Set positions (LCAO WFS):           0.366     0.068   0.2% |
  Basic WFS set positions:           0.001     0.001   0.0% |
  Basis functions set positions:     0.000     0.000   0.0% |
  P tci:                             0.141     0.141   0.4% |
  ST tci:                            0.138     0.138   0.4% |
  mktci:                             0.018     0.018   0.1% |
PWDescriptor:                        0.024     0.024   0.1% |
Redistribute:                        0.000     0.000   0.0% |
SCF-cycle:                          27.471     4.495  14.2% |-----|
 Davidson:                          22.808     4.145  13.1% |----|
  Apply H:                           3.363     3.290  10.4% |---|
   HMM T:                            0.073     0.073   0.2% |
  Subspace diag:                     4.648     0.006   0.0% |
   calc_h_matrix:                    3.953     0.505   1.6% ||
    Apply H:                         3.449     3.372  10.6% |---|
     HMM T:                          0.077     0.077   0.2% |
   diagonalize:                      0.031     0.031   0.1% |
   rotate_psi:                       0.658     0.658   2.1% ||
  calc. matrices:                    9.197     2.437   7.7% |--|
   Apply H:                          6.760     6.620  20.9% |-------|
    HMM T:                           0.140     0.140   0.4% |
  diagonalize:                       0.205     0.205   0.6% |
  rotate_psi:                        1.249     1.249   3.9% |-|
 Orthonormalize:                     0.169     0.001   0.0% |
  calc_s_matrix:                     0.028     0.028   0.1% |
  inverse-cholesky:                  0.001     0.001   0.0% |
  projections:                       0.103     0.103   0.3% |
  rotate_psi_s:                      0.036     0.036   0.1% |
Set symmetry:                        0.000     0.000   0.0% |
Other:                               1.260     1.260   4.0% |-|
-----------------------------------------------------------
Total:                                        31.733 100.0%

Memory usage: 285.01 MiB
Date: Mon May 18 22:43:15 2026
