
  ___ ___ ___ _ _ _  
 |   |   |_  | | | | 
 | | | | | . | | | | 
 |__ |  _|___|_____|  25.7.0
 |___|_|             

User:   luis-ochoa@luis-pc
Date:   Tue May  5 23:05:23 2026
Arch:   x86_64
Pid:    155847
CWD:    /home/luis-ochoa/Documents/Vscode/py/dft
Python: 3.12.3
gpaw:   /home/luis-ochoa/Documents/Vscode/py/dft/.venv/lib/python3.12/site-packages/gpaw
_gpaw:  /home/luis-ochoa/Documents/Vscode/py/dft/.venv/lib/python3.12/site-packages/
        _gpaw.cpython-312-x86_64-linux-gnu.so
ase:    /home/luis-ochoa/Documents/Vscode/py/dft/.venv/lib/python3.12/site-packages/ase (version 3.28.0)
numpy:  /home/luis-ochoa/Documents/Vscode/py/dft/.venv/lib/python3.12/site-packages/numpy (version 2.4.4)
scipy:  /home/luis-ochoa/Documents/Vscode/py/dft/.venv/lib/python3.12/site-packages/scipy (version 1.17.1)
libxc:  5.2.3
units:  Angstrom and eV
cores: 1
OpenMP: False
OMP_NUM_THREADS: 1

Input parameters:
  convergence: {energy: 1e-08}
  kpts: {gamma: True,
         size: [10, 10, 10]}
  mode: {ecut: 450.00000000000006,
         name: pw}
  occupations: {name: fermi-dirac,
                width: 0.05}
  xc: PBE

System changes: positions, numbers, cell, pbc, initial_charges, initial_magmoms 

Initialize ...

species:
  Cs:
    name: Caesium
    id: fa822afd343f47335d508b9ee4f394c3
    Z: 55.0
    valence: 9
    core: 46
    charge: 0.0
    file: /home/luis-ochoa/Documents/Vscode/py/dft/.venv/lib/python3.12/site-packages/gpaw_data/setups/Cs.PBE.gz
    compensation charges: {type: gauss,
                           rc: 0.33,
                           lmax: 2}
    cutoffs: {filter: 2.06,
              core: 2.51}
    projectors:
      #              energy  rcut
      - 5s(2.00)   -26.706   1.164
      - 6s(1.00)    -2.085   1.164
      - 5p(6.00)   -13.523   1.058
      -  p          13.688   1.058
      -  d           0.000   1.058
  
    # Using partial waves for Cs as LCAO basis

  I:
    name: Iodine
    id: 91405a398e4dfe788ff04f57531604ec
    Z: 53.0
    valence: 7
    core: 46
    charge: 0.0
    file: /home/luis-ochoa/Documents/Vscode/py/dft/.venv/lib/python3.12/site-packages/gpaw_data/setups/I.PBE.gz
    compensation charges: {type: gauss,
                           rc: 0.37,
                           lmax: 2}
    cutoffs: {filter: 2.06,
              core: 2.90}
    projectors:
      #              energy  rcut
      - 5s(2.00)   -17.382   1.164
      - 5p(5.00)    -7.088   1.164
      -  s           9.829   1.164
      -  p          20.123   1.164
      -  d           0.000   1.164
  
    # Using partial waves for I as LCAO basis

Reference energy: -405340.872152  # eV

Spin-paired calculation

Convergence criteria:
 Maximum [total energy] change in last 3 cyles: 1e-08 eV / valence electron
 Maximum integral of absolute [dens]ity change: 0.0001 electrons / valence electron
 Maximum integral of absolute [eigenst]ate change: 4e-08 eV^2 / valence electron
 Maximum number of scf [iter]ations: 333
 (Square brackets indicate name in SCF output, whereas a 'c' in
 the SCF output indicates the quantity has converged.)

Symmetries present (total): 48

  ( 1  0  0)  ( 1  0  0)  ( 1  0  0)  ( 1  0  0)  ( 1  0  0)  ( 1  0  0)
  ( 0  1  0)  ( 0  1  0)  ( 0  0  1)  ( 0  0  1)  ( 0  0 -1)  ( 0  0 -1)
  ( 0  0  1)  ( 0  0 -1)  ( 0  1  0)  ( 0 -1  0)  ( 0  1  0)  ( 0 -1  0)

  ( 1  0  0)  ( 1  0  0)  ( 0  1  0)  ( 0  1  0)  ( 0  1  0)  ( 0  1  0)
  ( 0 -1  0)  ( 0 -1  0)  ( 1  0  0)  ( 1  0  0)  ( 0  0  1)  ( 0  0  1)
  ( 0  0  1)  ( 0  0 -1)  ( 0  0  1)  ( 0  0 -1)  ( 1  0  0)  (-1  0  0)

  ( 0  1  0)  ( 0  1  0)  ( 0  1  0)  ( 0  1  0)  ( 0  0  1)  ( 0  0  1)
  ( 0  0 -1)  ( 0  0 -1)  (-1  0  0)  (-1  0  0)  ( 1  0  0)  ( 1  0  0)
  ( 1  0  0)  (-1  0  0)  ( 0  0  1)  ( 0  0 -1)  ( 0  1  0)  ( 0 -1  0)

  ( 0  0  1)  ( 0  0  1)  ( 0  0  1)  ( 0  0  1)  ( 0  0  1)  ( 0  0  1)
  ( 0  1  0)  ( 0  1  0)  ( 0 -1  0)  ( 0 -1  0)  (-1  0  0)  (-1  0  0)
  ( 1  0  0)  (-1  0  0)  ( 1  0  0)  (-1  0  0)  ( 0  1  0)  ( 0 -1  0)

  ( 0  0 -1)  ( 0  0 -1)  ( 0  0 -1)  ( 0  0 -1)  ( 0  0 -1)  ( 0  0 -1)
  ( 1  0  0)  ( 1  0  0)  ( 0  1  0)  ( 0  1  0)  ( 0 -1  0)  ( 0 -1  0)
  ( 0  1  0)  ( 0 -1  0)  ( 1  0  0)  (-1  0  0)  ( 1  0  0)  (-1  0  0)

  ( 0  0 -1)  ( 0  0 -1)  ( 0 -1  0)  ( 0 -1  0)  ( 0 -1  0)  ( 0 -1  0)
  (-1  0  0)  (-1  0  0)  ( 1  0  0)  ( 1  0  0)  ( 0  0  1)  ( 0  0  1)
  ( 0  1  0)  ( 0 -1  0)  ( 0  0  1)  ( 0  0 -1)  ( 1  0  0)  (-1  0  0)

  ( 0 -1  0)  ( 0 -1  0)  ( 0 -1  0)  ( 0 -1  0)  (-1  0  0)  (-1  0  0)
  ( 0  0 -1)  ( 0  0 -1)  (-1  0  0)  (-1  0  0)  ( 0  1  0)  ( 0  1  0)
  ( 1  0  0)  (-1  0  0)  ( 0  0  1)  ( 0  0 -1)  ( 0  0  1)  ( 0  0 -1)

  (-1  0  0)  (-1  0  0)  (-1  0  0)  (-1  0  0)  (-1  0  0)  (-1  0  0)
  ( 0  0  1)  ( 0  0  1)  ( 0  0 -1)  ( 0  0 -1)  ( 0 -1  0)  ( 0 -1  0)
  ( 0  1  0)  ( 0 -1  0)  ( 0  1  0)  ( 0 -1  0)  ( 0  0  1)  ( 0  0 -1)

1000 k-points: 10 x 10 x 10 Monkhorst-Pack grid + [1/20,1/20,1/20]
56 k-points in the irreducible part of the Brillouin zone
       k-points in crystal coordinates                weights
   0:     0.00000000    0.00000000    0.00000000          1/1000
   1:     0.10000000    0.00000000    0.00000000          6/1000
   2:     0.10000000    0.10000000    0.00000000         12/1000
   3:     0.10000000    0.10000000    0.10000000          8/1000
   4:     0.20000000    0.00000000    0.00000000          6/1000
   5:     0.20000000    0.10000000    0.00000000         24/1000
   6:     0.20000000    0.10000000    0.10000000         24/1000
   7:     0.20000000    0.20000000    0.00000000         12/1000
   8:     0.20000000    0.20000000    0.10000000         24/1000
   9:     0.20000000    0.20000000    0.20000000          8/1000
          ...
  55:     0.50000000    0.50000000    0.50000000          1/1000

Wave functions: Plane wave expansion
  Cutoff energy: 450.000 eV
  Number of coefficients (min, max): 2008, 2103
  Pulay-stress correction: 0.000000 eV/Ang^3 (de/decut=0.000000)
  Using Numpy's FFT
  ScaLapack parameters: grid=1x1, blocksize=None
  Wavefunction extrapolation:
    Improved wavefunction reuse through dual PAW basis 

Occupation numbers: Fermi-Dirac:
  width: 0.0500  # eV
 

Eigensolver
   Davidson(niter=2) 

Densities:
  Coarse grid: 24*24*24 grid
  Fine grid: 48*48*48 grid
  Total Charge: 0.000000 

Density mixing:
  Method: separate
  Backend: pulay
  Linear mixing parameter: 0.05
  old densities: 5
  Damping of long wavelength oscillations: 50 

Hamiltonian:
  XC and Coulomb potentials evaluated on a 48*48*48 grid
  Using the PBE Exchange-Correlation functional
  External potential:
    NoExternalPotential
 

XC parameters: PBE with 2 nearest neighbor stencil

Memory estimate:
  Process memory now: 164.43 MiB
  Calculator: 44.31 MiB
    Density: 6.54 MiB
      Arrays: 2.74 MiB
      Localized functions: 2.74 MiB
      Mixer: 1.05 MiB
    Hamiltonian: 1.86 MiB
      Arrays: 1.79 MiB
      XC: 0.00 MiB
      Poisson: 0.00 MiB
      vbar: 0.07 MiB
    Wavefunctions: 35.91 MiB
      Arrays psit_nG: 16.17 MiB
      Eigensolver: 0.46 MiB
      Projections: 0.20 MiB
      Projectors: 16.75 MiB
      PW-descriptor: 2.32 MiB

Total number of cores used: 1

Number of atoms: 2
Number of atomic orbitals: 9
Number of bands in calculation: 9
Number of valence electrons: 16
Bands to converge: occupied

... initialized

Initializing position-dependent things.

Density initialized from atomic densities
Creating initial wave functions:
  9 bands from LCAO basis set

    .----------.  
   /|          |  
  / |          |  
 *  |          |  
 |  |   I      |  
 |  |          |  
 |  .----------.  
 | /          /   
 |/          /    
 Cs---------*     

Atomic positions and initial magnetic moments

Positions:
   0 Cs     0.000000    0.000000    0.000000    ( 0.0000,  0.0000,  0.0000)
   1 I      2.283500    2.283500    2.283500    ( 0.0000,  0.0000,  0.0000)

Unit cell:
           periodic     x           y           z      points  spacing
  1. axis:    yes    4.567000    0.000000    0.000000    24     0.1903
  2. axis:    yes    0.000000    4.567000    0.000000    24     0.1903
  3. axis:    yes    0.000000    0.000000    4.567000    24     0.1903

  Lengths:   4.567000   4.567000   4.567000
  Angles:   90.000000  90.000000  90.000000

Effective grid spacing dv^(1/3) = 0.1903

     iter     time        total  log10-change:
                         energy   eigst   dens
iter:   1 23:05:29    -5.629178
iter:   2 23:05:33    -5.591041   -2.52  -1.25
iter:   3 23:05:37    -5.433551   -2.26  -1.29
iter:   4 23:05:41    -5.395674   -2.41  -1.48
iter:   5 23:05:46    -5.401797   -2.96  -1.67
iter:   6 23:05:51    -5.395002   -3.44  -2.01
iter:   7 23:05:56    -5.394085   -4.28  -2.33
iter:   8 23:06:00    -5.395307   -4.25  -2.38
iter:   9 23:06:04    -5.394264   -4.02  -2.35
iter:  10 23:06:08    -5.394267   -4.53  -2.90
iter:  11 23:06:12    -5.394241   -5.80  -3.05
iter:  12 23:06:16    -5.394260   -5.51  -3.18
iter:  13 23:06:20    -5.394266   -5.15  -3.09
iter:  14 23:06:24    -5.394233   -5.82  -3.21
iter:  15 23:06:28    -5.394233   -7.06  -3.81
iter:  16 23:06:33    -5.394234   -7.24  -3.89
iter:  17 23:06:37    -5.394233   -8.15c -3.75
iter:  18 23:06:42    -5.394232   -6.75  -3.69
iter:  19 23:06:47    -5.394233   -7.83c -4.73c
iter:  20 23:06:51    -5.394232c  -8.72c -4.65c

Converged after 20 iterations.

Dipole moment: (-0.000000, 0.000000, 0.000000) |e|*Ang

Energy contributions relative to reference atoms: (reference = -405340.872152)

Kinetic:         +8.635460
Potential:       -7.920196
External:        +0.000000
XC:              -6.045143
Entropy (-ST):   -0.000000
Local:           -0.064353
SIC:             +0.000000
--------------------------
Free energy:     -5.394232
Extrapolated:    -5.394232

Showing only first 2 kpts
 Kpt  Band  Eigenvalues  Occupancy
  0     6      2.50226    2.00000
  0     7      2.50226    2.00000
  0     8      6.48273    0.00000

  1     6      2.48823    2.00000
  1     7      2.48823    2.00000
  1     8      6.71493    0.00000


Fermi level: 4.18079

Gap: 3.892 eV
Transition (v -> c):
  (s=0, k=50, n=7, [0.50, 0.50, 0.00]) -> (s=0, k=0, n=8, [0.00, 0.00, 0.00])
Direct/indirect transitions are different
Direct gap: 3.980 eV
Transition at: (s=0, k=0, n=7, [0.00, 0.00, 0.00])
Writing to calculations/alpha/09_formation_energy/binaries/CsI.gpw (mode='')

Timing:                              incl.     excl.
-----------------------------------------------------------
Hamiltonian:                         0.183     0.011   0.0% |
 Atomic:                             0.114     0.001   0.0% |
  XC Correction:                     0.113     0.113   0.1% |
 Calculate atomic Hamiltonians:      0.002     0.002   0.0% |
 Communicate:                        0.000     0.000   0.0% |
 Initialize Hamiltonian:             0.000     0.000   0.0% |
 Poisson:                            0.000     0.000   0.0% |
 XC 3D grid:                         0.056     0.056   0.1% |
LCAO initialization:                 1.017     0.065   0.1% |
 LCAO eigensolver:                   0.062     0.002   0.0% |
  Calculate projections:             0.003     0.003   0.0% |
  DenseAtomicCorrection:             0.008     0.008   0.0% |
  Distribute overlap matrix:         0.001     0.001   0.0% |
  Orbital Layouts:                   0.007     0.007   0.0% |
  Potential matrix:                  0.031     0.031   0.0% |
  Sum over cells:                    0.010     0.010   0.0% |
 LCAO to grid:                       0.727     0.727   0.8% |
 Set positions (LCAO WFS):           0.162     0.021   0.0% |
  Basic WFS set positions:           0.004     0.004   0.0% |
  Basis functions set positions:     0.000     0.000   0.0% |
  P tci:                             0.056     0.056   0.1% |
  ST tci:                            0.076     0.076   0.1% |
  mktci:                             0.006     0.006   0.0% |
PWDescriptor:                        0.027     0.027   0.0% |
SCF-cycle:                          86.216     0.096   0.1% |
 Davidson:                          75.291    14.663  16.7% |------|
  Apply H:                          10.750    10.525  12.0% |----|
   HMM T:                            0.225     0.225   0.3% |
  Subspace diag:                    14.887     0.094   0.1% |
   calc_h_matrix:                   12.585     1.814   2.1% ||
    Apply H:                        10.771    10.522  12.0% |----|
     HMM T:                          0.249     0.249   0.3% |
   diagonalize:                      0.218     0.218   0.2% |
   rotate_psi:                       1.989     1.989   2.3% ||
  calc. matrices:                   27.532     5.778   6.6% |--|
   Apply H:                         21.753    21.290  24.2% |---------|
    HMM T:                           0.463     0.463   0.5% |
  diagonalize:                       2.570     2.570   2.9% ||
  rotate_psi:                        4.889     4.889   5.6% |-|
 Density:                            6.847     0.000   0.0% |
  Atomic density matrices:           0.080     0.080   0.1% |
  Mix:                               1.135     1.135   1.3% ||
  Multipole moments:                 0.002     0.002   0.0% |
  Pseudo density:                    5.629     4.885   5.6% |-|
   Symmetrize density:               0.744     0.744   0.8% |
 Hamiltonian:                        3.858     0.164   0.2% |
  Atomic:                            2.185     0.011   0.0% |
   XC Correction:                    2.173     2.173   2.5% ||
  Calculate atomic Hamiltonians:     0.056     0.056   0.1% |
  Communicate:                       0.000     0.000   0.0% |
  Poisson:                           0.113     0.113   0.1% |
  XC 3D grid:                        1.341     1.341   1.5% ||
 Orthonormalize:                     0.124     0.005   0.0% |
  calc_s_matrix:                     0.018     0.018   0.0% |
  inverse-cholesky:                  0.005     0.005   0.0% |
  projections:                       0.049     0.049   0.1% |
  rotate_psi_s:                      0.047     0.047   0.1% |
Set symmetry:                        0.081     0.081   0.1% |
Other:                               0.334     0.334   0.4% |
-----------------------------------------------------------
Total:                                        87.858 100.0%

Memory usage: 220.08 MiB
Date: Tue May  5 23:06:51 2026
