
  ___ ___ ___ _ _ _  
 |   |   |_  | | | | 
 | | | | | . | | | | 
 |__ |  _|___|_____|  25.7.0
 |___|_|             

User:   luis-ochoa@luis-pc
Date:   Wed Apr 29 17:02:58 2026
Arch:   x86_64
Pid:    15768
CWD:    /home/luis-ochoa/Documents/Vscode/py/dft-cspbi3-gpaw-main
Python: 3.12.3
gpaw:   /home/luis-ochoa/Documents/Vscode/py/dft-cspbi3-gpaw-main/.venv/lib/python3.12/site-packages/gpaw
_gpaw:  /home/luis-ochoa/Documents/Vscode/py/dft-cspbi3-gpaw-main/.venv/lib/python3.12/site-packages/
        _gpaw.cpython-312-x86_64-linux-gnu.so
ase:    /home/luis-ochoa/Documents/Vscode/py/dft-cspbi3-gpaw-main/.venv/lib/python3.12/site-packages/ase (version 3.28.0)
numpy:  /home/luis-ochoa/Documents/Vscode/py/dft-cspbi3-gpaw-main/.venv/lib/python3.12/site-packages/numpy (version 2.4.4)
scipy:  /home/luis-ochoa/Documents/Vscode/py/dft-cspbi3-gpaw-main/.venv/lib/python3.12/site-packages/scipy (version 1.17.1)
libxc:  5.2.3
units:  Angstrom and eV
cores: 7
OpenMP: False
OMP_NUM_THREADS: 1

Input parameters:
  convergence: {energy: 1e-08}
  kpts: {gamma: True,
         size: [6, 6, 6]}
  mode: {ecut: 450.00000000000006,
         name: pw}
  occupations: {name: fermi-dirac,
                width: 0.05}
  xc: PBE

System changes: positions, numbers, cell, pbc, initial_charges, initial_magmoms 

Initialize ...

species:
  Pb:
    name: Lead
    id: 66e73b13d76dc837202bcdb13fee58e6
    Z: 82.0
    valence: 14
    core: 68
    charge: 0.0
    file: /home/luis-ochoa/.gpaw/gpaw-setups-24.11.0/Pb.PBE.gz
    compensation charges: {type: gauss,
                           rc: 0.38,
                           lmax: 2}
    cutoffs: {filter: 2.36,
              core: 2.43}
    projectors:
      #              energy  rcut
      - 6s(2.00)   -11.969   1.259
      - 6p(2.00)    -3.506   1.275
      - 5d(10.00)   -21.211   1.217
      -  s          15.243   1.259
      -  p          23.705   1.275
      -  d           6.001   1.217
  
    # Using partial waves for Pb as LCAO basis

  I:
    name: Iodine
    id: 91405a398e4dfe788ff04f57531604ec
    Z: 53.0
    valence: 7
    core: 46
    charge: 0.0
    file: /home/luis-ochoa/.gpaw/gpaw-setups-24.11.0/I.PBE.gz
    compensation charges: {type: gauss,
                           rc: 0.37,
                           lmax: 2}
    cutoffs: {filter: 2.06,
              core: 2.90}
    projectors:
      #              energy  rcut
      - 5s(2.00)   -17.382   1.164
      - 5p(5.00)    -7.088   1.164
      -  s           9.829   1.164
      -  p          20.123   1.164
      -  d           0.000   1.164
  
    # Using partial waves for I as LCAO basis

Reference energy: -954356.054697  # eV

Spin-paired calculation

Convergence criteria:
 Maximum [total energy] change in last 3 cyles: 1e-08 eV / valence electron
 Maximum integral of absolute [dens]ity change: 0.0001 electrons / valence electron
 Maximum integral of absolute [eigenst]ate change: 4e-08 eV^2 / valence electron
 Maximum number of scf [iter]ations: 333
 (Square brackets indicate name in SCF output, whereas a 'c' in
 the SCF output indicates the quantity has converged.)

Symmetries present (total): 4

  ( 1  0  0)  ( 0  1  0)  ( 0 -1  0)  (-1  0  0)
  ( 0  1  0)  ( 1  0  0)  (-1  0  0)  ( 0 -1  0)
  ( 0  0  1)  ( 0  0 -1)  ( 0  0  1)  ( 0  0 -1)

216 k-points: 6 x 6 x 6 Monkhorst-Pack grid + [1/12,1/12,1/12]
68 k-points in the irreducible part of the Brillouin zone
       k-points in crystal coordinates                weights
   0:     0.00000000    0.00000000    0.00000000          1/216
   1:     0.00000000    0.00000000    0.16666667          2/216
   2:     0.00000000    0.00000000    0.33333333          2/216
   3:     0.00000000    0.00000000    0.50000000          1/216
   4:     0.16666667   -0.16666667   -0.33333333          2/216
   5:     0.16666667   -0.16666667   -0.16666667          2/216
   6:     0.16666667   -0.16666667    0.00000000          2/216
   7:     0.16666667   -0.16666667    0.16666667          2/216
   8:     0.16666667   -0.16666667    0.33333333          2/216
   9:     0.16666667   -0.16666667    0.50000000          2/216
          ...
  67:     0.50000000    0.50000000    0.50000000          1/216

Wave functions: Plane wave expansion
  Cutoff energy: 450.000 eV
  Number of coefficients (min, max): 2683, 2757
  Pulay-stress correction: 0.000000 eV/Ang^3 (de/decut=0.000000)
  Using Numpy's FFT
  ScaLapack parameters: grid=1x1, blocksize=None
  Wavefunction extrapolation:
    Improved wavefunction reuse through dual PAW basis 

Occupation numbers: Fermi-Dirac:
  width: 0.0500  # eV
 

Eigensolver
   Davidson(niter=2) 

Densities:
  Coarse grid: 24*24*35 grid
  Fine grid: 48*48*70 grid
  Total Charge: 0.000000 

Density mixing:
  Method: separate
  Backend: pulay
  Linear mixing parameter: 0.05
  old densities: 5
  Damping of long wavelength oscillations: 50 

Hamiltonian:
  XC and Coulomb potentials evaluated on a 48*48*70 grid
  Using the PBE Exchange-Correlation functional
  External potential:
    NoExternalPotential
 

XC parameters: PBE with 2 nearest neighbor stencil

Memory estimate:
  Process memory now: 540.82 MiB
  Calculator: 24.25 MiB
    Density: 9.16 MiB
      Arrays: 4.00 MiB
      Localized functions: 3.62 MiB
      Mixer: 1.54 MiB
    Hamiltonian: 2.70 MiB
      Arrays: 2.61 MiB
      XC: 0.00 MiB
      Poisson: 0.00 MiB
      vbar: 0.09 MiB
    Wavefunctions: 12.39 MiB
      Arrays psit_nG: 6.44 MiB
      Eigensolver: 0.97 MiB
      Projections: 0.10 MiB
      Projectors: 3.73 MiB
      PW-descriptor: 1.15 MiB

Total number of cores used: 7
Parallelization over k-points: 7

Number of atoms: 3
Number of atomic orbitals: 17
Number of bands in calculation: 17
Number of valence electrons: 28
Bands to converge: occupied

... initialized

Initializing position-dependent things.

Density initialized from atomic densities
Creating initial wave functions:
  17 bands from LCAO basis set

                           
                           
                           
                           
                 I         
                           
                           
                           
                I          
                           
                           
       Pb                  
                           
                           
                           
                           

Atomic positions and initial magnetic moments

Positions:
   0 Pb     0.000000    0.000000    0.000000    ( 0.0000,  0.0000,  0.0000)
   1 I      3.038667    2.631563    1.641710    ( 0.0000,  0.0000,  0.0000)
   2 I      3.798333    1.315781    5.344290    ( 0.0000,  0.0000,  0.0000)

Unit cell:
           periodic     x           y           z      points  spacing
  1. axis:    yes    4.558000    0.000000    0.000000    24     0.1645
  2. axis:    yes    2.279000    3.947344    0.000000    24     0.1645
  3. axis:    yes    0.000000    0.000000    6.986000    35     0.1996

  Lengths:   4.558000   4.558000   6.986000
  Angles:   90.000000  90.000000  60.000000

Effective grid spacing dv^(1/3) = 0.1841

     iter     time        total  log10-change:
                         energy   eigst   dens
iter:   1 17:03:00     0.768578
iter:   2 17:03:02     0.697776   -0.80  -1.56
iter:   3 17:03:03     0.690564   -1.77  -1.57
iter:   4 17:03:05     0.742534   -2.34  -1.57
iter:   5 17:03:06     0.748515   -2.65  -1.74
iter:   6 17:03:08     0.742110   -2.78  -1.78
iter:   7 17:03:09     0.732888   -2.87  -1.75
iter:   8 17:03:11     0.763702   -2.39  -1.69
iter:   9 17:03:13     0.762427   -3.45  -1.95
iter:  10 17:03:14     0.767889   -4.05  -1.94
iter:  11 17:03:16     0.772750   -3.87  -1.99
iter:  12 17:03:17     0.772775   -3.55  -2.06
iter:  13 17:03:19     0.773761   -4.33  -2.06
iter:  14 17:03:20     0.774474   -3.37  -2.03
iter:  15 17:03:22     0.774589   -3.50  -2.27
iter:  16 17:03:23     0.774457   -4.40  -2.32
iter:  17 17:03:25     0.773484   -4.25  -2.32
iter:  18 17:03:26     0.775954   -4.15  -2.23
iter:  19 17:03:28     0.773968   -4.09  -2.25
iter:  20 17:03:29     0.774011   -5.24  -2.27
iter:  21 17:03:31     0.770880   -3.81  -2.27
iter:  22 17:03:32     0.771264   -3.70  -2.14
iter:  23 17:03:34     0.771023   -4.04  -2.20
iter:  24 17:03:36     0.770882   -4.25  -2.24
iter:  25 17:03:37     0.773104   -3.66  -2.19
iter:  26 17:03:39     0.772708   -4.82  -2.38
iter:  27 17:03:40     0.773060   -4.13  -2.40
iter:  28 17:03:42     0.773237   -4.77  -2.54
iter:  29 17:03:43     0.774176   -4.02  -2.57
iter:  30 17:03:45     0.774266   -4.73  -2.77
iter:  31 17:03:46     0.774359   -5.23  -2.81
iter:  32 17:03:48     0.774388   -4.70  -2.87
iter:  33 17:03:49     0.774383   -5.55  -3.04
iter:  34 17:03:51     0.774390   -6.39  -3.08
iter:  35 17:03:53     0.774399   -5.70  -3.10
iter:  36 17:03:54     0.774409   -6.11  -3.19
iter:  37 17:03:56     0.774415   -6.65  -3.29
iter:  38 17:03:57     0.774414   -5.33  -3.35
iter:  39 17:03:59     0.774414   -6.36  -3.58
iter:  40 17:04:00     0.774413   -7.22  -3.61
iter:  41 17:04:02     0.774413c  -6.35  -3.61
iter:  42 17:04:03     0.774415   -6.67  -3.68
iter:  43 17:04:05     0.774416   -7.04  -3.80
iter:  44 17:04:07     0.774416   -7.18  -3.90
iter:  45 17:04:08     0.774417   -7.47c -4.15c
iter:  46 17:04:10     0.774418   -7.63c -4.25c
iter:  47 17:04:11     0.774418   -8.62c -4.51c
iter:  48 17:04:13     0.774418c  -8.27c -4.55c

Converged after 48 iterations.

Dipole moment: (-0.000000, 0.000000, -0.000000) |e|*Ang

Energy contributions relative to reference atoms: (reference = -954356.054697)

Kinetic:       +107.249067
Potential:      -90.192028
External:        +0.000000
XC:             -16.191361
Entropy (-ST):   -0.042634
Local:           -0.069943
SIC:             +0.000000
--------------------------
Free energy:     +0.753101
Extrapolated:    +0.774418

Showing only first 2 kpts
 Kpt  Band  Eigenvalues  Occupancy
  0    12      1.72432    2.00000
  0    13      4.18355    2.00000
  0    14      4.28379    2.00000
  0    15      6.17219    0.00000

  1    12      1.70138    2.00000
  1    13      4.10452    2.00000
  1    14      4.62447    1.99958
  1    15      6.19146    0.00000


Fermi level: 5.04803

No gap
No difference between direct/indirect transitions
Writing to calculations/alpha/09_formation_energy/binaries/PbI2.gpw (mode='')

Timing:                              incl.     excl.
-----------------------------------------------------------
Hamiltonian:                         0.130     0.001   0.0% |
 Atomic:                             0.061     0.061   0.1% |
  XC Correction:                     0.000     0.000   0.0% |
 Calculate atomic Hamiltonians:      0.005     0.005   0.0% |
 Communicate:                        0.000     0.000   0.0% |
 Initialize Hamiltonian:             0.000     0.000   0.0% |
 Poisson:                            0.001     0.001   0.0% |
 XC 3D grid:                         0.060     0.060   0.1% |
LCAO initialization:                 0.769     0.099   0.1% |
 LCAO eigensolver:                   0.076     0.000   0.0% |
  Calculate projections:             0.001     0.001   0.0% |
  DenseAtomicCorrection:             0.002     0.002   0.0% |
  Distribute overlap matrix:         0.000     0.000   0.0% |
  Orbital Layouts:                   0.002     0.002   0.0% |
  Potential matrix:                  0.068     0.068   0.1% |
  Sum over cells:                    0.002     0.002   0.0% |
 LCAO to grid:                       0.506     0.506   0.7% |
 Set positions (LCAO WFS):           0.088     0.015   0.0% |
  Basic WFS set positions:           0.001     0.001   0.0% |
  Basis functions set positions:     0.000     0.000   0.0% |
  P tci:                             0.028     0.028   0.0% |
  ST tci:                            0.035     0.035   0.0% |
  mktci:                             0.010     0.010   0.0% |
PWDescriptor:                        0.010     0.010   0.0% |
SCF-cycle:                          73.870     6.007   8.0% |--|
 Davidson:                          54.906     6.493   8.6% |--|
  Apply H:                          10.050     9.848  13.1% |----|
   HMM T:                            0.202     0.202   0.3% |
  Subspace diag:                    11.993     0.040   0.1% |
   calc_h_matrix:                   10.861     0.783   1.0% |
    Apply H:                        10.078     9.870  13.1% |----|
     HMM T:                          0.208     0.208   0.3% |
   diagonalize:                      0.111     0.111   0.1% |
   rotate_psi:                       0.982     0.982   1.3% ||
  calc. matrices:                   23.954     3.835   5.1% |-|
   Apply H:                         20.119    19.712  26.3% |----------|
    HMM T:                           0.407     0.407   0.5% |
  diagonalize:                       0.491     0.491   0.7% |
  rotate_psi:                        1.924     1.924   2.6% ||
 Density:                            6.752     0.001   0.0% |
  Atomic density matrices:           0.074     0.074   0.1% |
  Mix:                               0.772     0.772   1.0% |
  Multipole moments:                 0.007     0.007   0.0% |
  Pseudo density:                    5.898     5.671   7.6% |--|
   Symmetrize density:               0.227     0.227   0.3% |
 Hamiltonian:                        6.164     0.050   0.1% |
  Atomic:                            2.792     2.792   3.7% ||
   XC Correction:                    0.000     0.000   0.0% |
  Calculate atomic Hamiltonians:     0.309     0.309   0.4% |
  Communicate:                       0.003     0.003   0.0% |
  Poisson:                           0.043     0.043   0.1% |
  XC 3D grid:                        2.966     2.966   4.0% |-|
 Orthonormalize:                     0.041     0.001   0.0% |
  calc_s_matrix:                     0.009     0.009   0.0% |
  inverse-cholesky:                  0.001     0.001   0.0% |
  projections:                       0.020     0.020   0.0% |
  rotate_psi_s:                      0.010     0.010   0.0% |
Set symmetry:                        0.008     0.008   0.0% |
Other:                               0.305     0.305   0.4% |
-----------------------------------------------------------
Total:                                        75.092 100.0%

Memory usage: 540.82 MiB
Date: Wed Apr 29 17:04:13 2026
