
  ___ ___ ___ _ _ _  
 |   |   |_  | | | | 
 | | | | | . | | | | 
 |__ |  _|___|_____|  25.7.0
 |___|_|             

User:   luis-ochoa@luis-pc
Date:   Tue May  5 23:06:51 2026
Arch:   x86_64
Pid:    155847
CWD:    /home/luis-ochoa/Documents/Vscode/py/dft
Python: 3.12.3
gpaw:   /home/luis-ochoa/Documents/Vscode/py/dft/.venv/lib/python3.12/site-packages/gpaw
_gpaw:  /home/luis-ochoa/Documents/Vscode/py/dft/.venv/lib/python3.12/site-packages/
        _gpaw.cpython-312-x86_64-linux-gnu.so
ase:    /home/luis-ochoa/Documents/Vscode/py/dft/.venv/lib/python3.12/site-packages/ase (version 3.28.0)
numpy:  /home/luis-ochoa/Documents/Vscode/py/dft/.venv/lib/python3.12/site-packages/numpy (version 2.4.4)
scipy:  /home/luis-ochoa/Documents/Vscode/py/dft/.venv/lib/python3.12/site-packages/scipy (version 1.17.1)
libxc:  5.2.3
units:  Angstrom and eV
cores: 1
OpenMP: False
OMP_NUM_THREADS: 1

Input parameters:
  convergence: {energy: 1e-08}
  kpts: {gamma: True,
         size: [8, 8, 6]}
  mode: {ecut: 450.00000000000006,
         name: pw}
  occupations: {name: fermi-dirac,
                width: 0.05}
  xc: PBE

System changes: positions, numbers, cell, pbc, initial_charges, initial_magmoms 

Initialize ...

species:
  Pb:
    name: Lead
    id: 66e73b13d76dc837202bcdb13fee58e6
    Z: 82.0
    valence: 14
    core: 68
    charge: 0.0
    file: /home/luis-ochoa/Documents/Vscode/py/dft/.venv/lib/python3.12/site-packages/gpaw_data/setups/Pb.PBE.gz
    compensation charges: {type: gauss,
                           rc: 0.38,
                           lmax: 2}
    cutoffs: {filter: 2.36,
              core: 2.43}
    projectors:
      #              energy  rcut
      - 6s(2.00)   -11.969   1.259
      - 6p(2.00)    -3.506   1.275
      - 5d(10.00)   -21.211   1.217
      -  s          15.243   1.259
      -  p          23.705   1.275
      -  d           6.001   1.217
  
    # Using partial waves for Pb as LCAO basis

  I:
    name: Iodine
    id: 91405a398e4dfe788ff04f57531604ec
    Z: 53.0
    valence: 7
    core: 46
    charge: 0.0
    file: /home/luis-ochoa/Documents/Vscode/py/dft/.venv/lib/python3.12/site-packages/gpaw_data/setups/I.PBE.gz
    compensation charges: {type: gauss,
                           rc: 0.37,
                           lmax: 2}
    cutoffs: {filter: 2.06,
              core: 2.90}
    projectors:
      #              energy  rcut
      - 5s(2.00)   -17.382   1.164
      - 5p(5.00)    -7.088   1.164
      -  s           9.829   1.164
      -  p          20.123   1.164
      -  d           0.000   1.164
  
    # Using partial waves for I as LCAO basis

Reference energy: -954356.054697  # eV

Spin-paired calculation

Convergence criteria:
 Maximum [total energy] change in last 3 cyles: 1e-08 eV / valence electron
 Maximum integral of absolute [dens]ity change: 0.0001 electrons / valence electron
 Maximum integral of absolute [eigenst]ate change: 4e-08 eV^2 / valence electron
 Maximum number of scf [iter]ations: 333
 (Square brackets indicate name in SCF output, whereas a 'c' in
 the SCF output indicates the quantity has converged.)

Symmetries present (total): 12

  ( 1  1  0)  ( 1  1  0)  ( 1  0  0)  ( 1  0  0)  ( 0  1  0)  ( 0  1  0)
  ( 0 -1  0)  (-1  0  0)  ( 0  1  0)  (-1 -1  0)  ( 1  0  0)  (-1 -1  0)
  ( 0  0  1)  ( 0  0 -1)  ( 0  0  1)  ( 0  0 -1)  ( 0  0 -1)  ( 0  0  1)

  ( 0 -1  0)  ( 0 -1  0)  (-1  0  0)  (-1  0  0)  (-1 -1  0)  (-1 -1  0)
  ( 1  1  0)  (-1  0  0)  ( 1  1  0)  ( 0 -1  0)  ( 1  0  0)  ( 0  1  0)
  ( 0  0 -1)  ( 0  0  1)  ( 0  0  1)  ( 0  0 -1)  ( 0  0  1)  ( 0  0 -1)

384 k-points: 8 x 8 x 6 Monkhorst-Pack grid + [1/16,1/16,1/12]
50 k-points in the irreducible part of the Brillouin zone
       k-points in crystal coordinates                weights
   0:     0.00000000    0.00000000    0.00000000          1/384
   1:     0.00000000    0.00000000    0.16666667          2/384
   2:     0.00000000    0.00000000    0.33333333          2/384
   3:     0.00000000    0.00000000    0.50000000          1/384
   4:     0.12500000    0.00000000   -0.33333333          6/384
   5:     0.12500000    0.00000000   -0.16666667          6/384
   6:     0.12500000    0.00000000    0.00000000          6/384
   7:     0.12500000    0.00000000    0.16666667          6/384
   8:     0.12500000    0.00000000    0.33333333          6/384
   9:     0.12500000    0.00000000    0.50000000          6/384
          ...
  49:     0.50000000    0.50000000    0.50000000          3/384

Wave functions: Plane wave expansion
  Cutoff energy: 450.000 eV
  Number of coefficients (min, max): 2683, 2742
  Pulay-stress correction: 0.000000 eV/Ang^3 (de/decut=0.000000)
  Using Numpy's FFT
  ScaLapack parameters: grid=1x1, blocksize=None
  Wavefunction extrapolation:
    Improved wavefunction reuse through dual PAW basis 

Occupation numbers: Fermi-Dirac:
  width: 0.0500  # eV
 

Eigensolver
   Davidson(niter=2) 

Densities:
  Coarse grid: 24*24*35 grid
  Fine grid: 48*48*70 grid
  Total Charge: 0.000000 

Density mixing:
  Method: separate
  Backend: pulay
  Linear mixing parameter: 0.05
  old densities: 5
  Damping of long wavelength oscillations: 50 

Hamiltonian:
  XC and Coulomb potentials evaluated on a 48*48*70 grid
  Using the PBE Exchange-Correlation functional
  External potential:
    NoExternalPotential
 

XC parameters: PBE with 2 nearest neighbor stencil

Memory estimate:
  Process memory now: 220.08 MiB
  Calculator: 72.59 MiB
    Density: 9.16 MiB
      Arrays: 4.00 MiB
      Localized functions: 3.62 MiB
      Mixer: 1.54 MiB
    Hamiltonian: 2.70 MiB
      Arrays: 2.61 MiB
      XC: 0.00 MiB
      Poisson: 0.00 MiB
      vbar: 0.09 MiB
    Wavefunctions: 60.73 MiB
      Arrays psit_nG: 35.56 MiB
      Eigensolver: 0.97 MiB
      Projections: 0.57 MiB
      Projectors: 20.77 MiB
      PW-descriptor: 2.86 MiB

Total number of cores used: 1

Number of atoms: 3
Number of atomic orbitals: 17
Number of bands in calculation: 17
Number of valence electrons: 28
Bands to converge: occupied

... initialized

Initializing position-dependent things.

Density initialized from atomic densities
Creating initial wave functions:
  17 bands from LCAO basis set

                       
                       
                       
                       
             I         
                       
                       
                       
         I             
                       
                       
       Pb              
                       
                       
                       
                       

Atomic positions and initial magnetic moments

Positions:
   0 Pb     0.000000    0.000000    0.000000    ( 0.0000,  0.0000,  0.0000)
   1 I      0.000000    2.631563    1.641710    ( 0.0000,  0.0000,  0.0000)
   2 I      2.279000    1.315781    5.344290    ( 0.0000,  0.0000,  0.0000)

Unit cell:
           periodic     x           y           z      points  spacing
  1. axis:    yes    4.558000    0.000000    0.000000    24     0.1645
  2. axis:    yes   -2.279000    3.947344    0.000000    24     0.1645
  3. axis:    yes    0.000000    0.000000    6.986000    35     0.1996

  Lengths:   4.558000   4.558000   6.986000
  Angles:   90.000000  90.000000 120.000000

Effective grid spacing dv^(1/3) = 0.1841

     iter     time        total  log10-change:
                         energy   eigst   dens
iter:   1 23:07:10    -8.557013
iter:   2 23:07:24    -8.549316   -1.14  -1.39
iter:   3 23:07:38    -8.476196   -1.84  -1.44
iter:   4 23:07:53    -8.489671   -1.83  -1.64
iter:   5 23:08:07    -8.477973   -2.75  -1.79
iter:   6 23:08:23    -8.476229   -4.11  -2.14
iter:   7 23:08:37    -8.470602   -3.23  -2.21
iter:   8 23:08:52    -8.470146   -4.36  -2.51
iter:   9 23:09:05    -8.470039   -5.38  -3.13
iter:  10 23:09:21    -8.470059   -5.31  -3.25
iter:  11 23:09:35    -8.470055   -6.62  -3.84
iter:  12 23:09:50    -8.470054   -7.64c -4.08c
iter:  13 23:10:04    -8.470050   -6.09  -4.10c
iter:  14 23:10:20    -8.470050   -7.23  -4.27c
iter:  15 23:10:35    -8.470050c  -8.27c -4.34c

Converged after 15 iterations.

Dipole moment: (0.000000, -0.000000, -0.000000) |e|*Ang

Energy contributions relative to reference atoms: (reference = -954356.054697)

Kinetic:        +35.580275
Potential:      -33.829000
External:        +0.000000
XC:             -10.180760
Entropy (-ST):   -0.000000
Local:           -0.040565
SIC:             +0.000000
--------------------------
Free energy:     -8.470050
Extrapolated:    -8.470050

Showing only first 2 kpts
 Kpt  Band  Eigenvalues  Occupancy
  0    12      1.58813    2.00000
  0    13      2.03935    2.00000
  0    14      4.80436    0.00000
  0    15      5.99957    0.00000

  1    12      1.56726    2.00000
  1    13      2.16720    2.00000
  1    14      4.78927    0.00000
  1    15      5.96492    0.00000


Fermi level: 3.77660

Gap: 2.015 eV
Transition (v -> c):
  (s=0, k=35, n=13, [0.38, 0.38, 0.50]) -> (s=0, k=3, n=14, [0.00, 0.00, 0.50])
Direct/indirect transitions are different
Direct gap: 2.367 eV
Transition at: (s=0, k=3, n=13, [0.00, 0.00, 0.50])
Writing to calculations/alpha/09_formation_energy/binaries/PbI2.gpw (mode='')

Timing:                              incl.     excl.
-----------------------------------------------------------
Hamiltonian:                         0.237     0.011   0.0% |
 Atomic:                             0.155     0.001   0.0% |
  XC Correction:                     0.154     0.154   0.1% |
 Calculate atomic Hamiltonians:      0.004     0.004   0.0% |
 Communicate:                        0.000     0.000   0.0% |
 Initialize Hamiltonian:             0.000     0.000   0.0% |
 Poisson:                            0.003     0.003   0.0% |
 XC 3D grid:                         0.065     0.065   0.0% |
LCAO initialization:                 3.168     0.099   0.0% |
 LCAO eigensolver:                   0.125     0.002   0.0% |
  Calculate projections:             0.005     0.005   0.0% |
  DenseAtomicCorrection:             0.011     0.011   0.0% |
  Distribute overlap matrix:         0.001     0.001   0.0% |
  Orbital Layouts:                   0.011     0.011   0.0% |
  Potential matrix:                  0.069     0.069   0.0% |
  Sum over cells:                    0.028     0.028   0.0% |
 LCAO to grid:                       2.643     2.643   1.2% |
 Set positions (LCAO WFS):           0.301     0.043   0.0% |
  Basic WFS set positions:           0.001     0.001   0.0% |
  Basis functions set positions:     0.000     0.000   0.0% |
  P tci:                             0.135     0.135   0.1% |
  ST tci:                            0.112     0.112   0.1% |
  mktci:                             0.010     0.010   0.0% |
PWDescriptor:                        0.034     0.034   0.0% |
SCF-cycle:                         220.408     0.113   0.1% |
 Davidson:                         202.990    42.407  18.9% |-------|
  Apply H:                          30.626    30.073  13.4% |----|
   HMM T:                            0.552     0.552   0.2% |
  Subspace diag:                    57.483     0.066   0.0% |
   calc_h_matrix:                   52.982    23.274  10.4% |---|
    Apply H:                        29.708    29.079  13.0% |----|
     HMM T:                          0.629     0.629   0.3% |
   diagonalize:                      0.208     0.208   0.1% |
   rotate_psi:                       4.227     4.227   1.9% ||
  calc. matrices:                   41.480     5.708   2.5% ||
   Apply H:                         35.772    35.102  15.7% |-----|
    HMM T:                           0.670     0.670   0.3% |
  diagonalize:                      13.061    13.061   5.8% |-|
  rotate_psi:                       17.933    17.933   8.0% |--|
 Density:                            9.947     0.000   0.0% |
  Atomic density matrices:           0.070     0.070   0.0% |
  Mix:                               0.917     0.917   0.4% |
  Multipole moments:                 0.002     0.002   0.0% |
  Pseudo density:                    8.957     8.758   3.9% |-|
   Symmetrize density:               0.200     0.200   0.1% |
 Hamiltonian:                        4.025     0.134   0.1% |
  Atomic:                            2.211     0.010   0.0% |
   XC Correction:                    2.201     2.201   1.0% |
  Calculate atomic Hamiltonians:     0.062     0.062   0.0% |
  Communicate:                       0.000     0.000   0.0% |
  Poisson:                           0.060     0.060   0.0% |
  XC 3D grid:                        1.559     1.559   0.7% |
 Orthonormalize:                     3.332     0.005   0.0% |
  calc_s_matrix:                     0.150     0.150   0.1% |
  inverse-cholesky:                  0.006     0.006   0.0% |
  projections:                       3.032     3.032   1.4% ||
  rotate_psi_s:                      0.139     0.139   0.1% |
Set symmetry:                        0.018     0.018   0.0% |
Other:                               0.377     0.377   0.2% |
-----------------------------------------------------------
Total:                                       224.242 100.0%

Memory usage: 269.81 MiB
Date: Tue May  5 23:10:35 2026
