
  ___ ___ ___ _ _ _  
 |   |   |_  | | | | 
 | | | | | . | | | | 
 |__ |  _|___|_____|  25.7.0
 |___|_|             

User:   luis-ochoa@luis-pc
Date:   Sat May  9 04:52:26 2026
Arch:   x86_64
Pid:    66020
CWD:    /home/luis-ochoa/Documents/Vscode/py/dft
Python: 3.12.3
gpaw:   /home/luis-ochoa/Documents/Vscode/py/dft/.venv/lib/python3.12/site-packages/gpaw
_gpaw:  /home/luis-ochoa/Documents/Vscode/py/dft/.venv/lib/python3.12/site-packages/
        _gpaw.cpython-312-x86_64-linux-gnu.so
ase:    /home/luis-ochoa/Documents/Vscode/py/dft/.venv/lib/python3.12/site-packages/ase (version 3.28.0)
numpy:  /home/luis-ochoa/Documents/Vscode/py/dft/.venv/lib/python3.12/site-packages/numpy (version 2.4.4)
scipy:  /home/luis-ochoa/Documents/Vscode/py/dft/.venv/lib/python3.12/site-packages/scipy (version 1.17.1)
libxc:  5.2.3
units:  Angstrom and eV
cores: 7
OpenMP: False
OMP_NUM_THREADS: 1

Input parameters:
  convergence: {energy: 1e-06,
                forces: 0.02}
  kpts: {gamma: True,
         size: [4, 4, 4]}
  mixer: {backend: pulay,
          beta: 0.05,
          method: separate,
          nmaxold: 5,
          weight: 50.0}
  mode: {ecut: 450.00000000000006,
         name: pw}
  symmetry: off
  xc: PBE

System changes: positions, numbers, cell, pbc, initial_charges, initial_magmoms 

Initialize ...

species:
  Pb:
    name: Lead
    id: 66e73b13d76dc837202bcdb13fee58e6
    Z: 82.0
    valence: 14
    core: 68
    charge: 0.0
    file: /home/luis-ochoa/.gpaw/gpaw-setups-24.11.0/Pb.PBE.gz
    compensation charges: {type: gauss,
                           rc: 0.38,
                           lmax: 2}
    cutoffs: {filter: 2.36,
              core: 2.43}
    projectors:
      #              energy  rcut
      - 6s(2.00)   -11.969   1.259
      - 6p(2.00)    -3.506   1.275
      - 5d(10.00)   -21.211   1.217
      -  s          15.243   1.259
      -  p          23.705   1.275
      -  d           6.001   1.217
  
    # Using partial waves for Pb as LCAO basis

  I:
    name: Iodine
    id: 91405a398e4dfe788ff04f57531604ec
    Z: 53.0
    valence: 7
    core: 46
    charge: 0.0
    file: /home/luis-ochoa/.gpaw/gpaw-setups-24.11.0/I.PBE.gz
    compensation charges: {type: gauss,
                           rc: 0.37,
                           lmax: 2}
    cutoffs: {filter: 2.06,
              core: 2.90}
    projectors:
      #              energy  rcut
      - 5s(2.00)   -17.382   1.164
      - 5p(5.00)    -7.088   1.164
      -  s           9.829   1.164
      -  p          20.123   1.164
      -  d           0.000   1.164
  
    # Using partial waves for I as LCAO basis

  C:
    name: Carbon
    id: 4aa54d4b901d75f77cc0ea3eec22967b
    Z: 6.0
    valence: 4
    core: 2
    charge: 0.0
    file: /home/luis-ochoa/.gpaw/gpaw-setups-24.11.0/C.PBE.gz
    compensation charges: {type: gauss,
                           rc: 0.20,
                           lmax: 2}
    cutoffs: {filter: 1.14,
              core: 1.14}
    projectors:
      #              energy  rcut
      - 2s(2.00)   -13.751   0.635
      - 2p(2.00)    -5.284   0.635
      -  s          13.461   0.635
      -  p          21.927   0.635
      -  d           0.000   0.635
  
    # Using partial waves for C as LCAO basis

  N:
    name: Nitrogen
    id: f7500608b86eaa90eef8b1d9a670dc53
    Z: 7.0
    valence: 5
    core: 2
    charge: 0.0
    file: /home/luis-ochoa/.gpaw/gpaw-setups-24.11.0/N.PBE.gz
    compensation charges: {type: gauss,
                           rc: 0.18,
                           lmax: 2}
    cutoffs: {filter: 1.11,
              core: 0.96}
    projectors:
      #              energy  rcut
      - 2s(2.00)   -18.583   0.603
      - 2p(3.00)    -7.089   0.529
      -  s           8.629   0.603
      -  p          20.123   0.529
      -  d           0.000   0.577
  
    # Using partial waves for N as LCAO basis

  H:
    name: Hydrogen
    id: d65de229564ff8ea4db303e23b6d1ecf
    Z: 1.0
    valence: 1
    core: 0
    charge: 0.0
    file: /home/luis-ochoa/.gpaw/gpaw-setups-24.11.0/H.PBE.gz
    compensation charges: {type: gauss,
                           rc: 0.15,
                           lmax: 2}
    cutoffs: {filter: 0.85,
              core: 0.53}
    projectors:
      #              energy  rcut
      - 1s(1.00)    -6.494   0.476
      -  s          20.717   0.476
      -  p           0.000   0.476
  
    # Using partial waves for H as LCAO basis

Reference energy: -1151950.372298  # eV

Spin-paired calculation

Convergence criteria:
 Maximum [total energy] change in last 3 cyles: 1e-06 eV / valence electron
 Maximum integral of absolute [dens]ity change: 0.0001 electrons / valence electron
 Maximum integral of absolute [eigenst]ate change: 4e-08 eV^2 / valence electron
 Maximum change in the atomic [forces] across last 2 cycles: 0.02 eV/Ang OR
Maximum error relative to the maximum force is below inf
 Maximum number of scf [iter]ations: 333
 (Square brackets indicate name in SCF output, whereas a 'c' in
 the SCF output indicates the quantity has converged.)

Symmetries present (total): 1

  ( 1  0  0)
  ( 0  1  0)
  ( 0  0  1)

64 k-points: 4 x 4 x 4 Monkhorst-Pack grid + [1/8,1/8,1/8]
64 k-points in the irreducible part of the Brillouin zone
       k-points in crystal coordinates                weights
   0:    -0.25000000   -0.25000000   -0.25000000          1/64
   1:    -0.25000000   -0.25000000    0.00000000          1/64
   2:    -0.25000000   -0.25000000    0.25000000          1/64
   3:    -0.25000000   -0.25000000    0.50000000          1/64
   4:    -0.25000000    0.00000000   -0.25000000          1/64
   5:    -0.25000000    0.00000000    0.00000000          1/64
   6:    -0.25000000    0.00000000    0.25000000          1/64
   7:    -0.25000000    0.00000000    0.50000000          1/64
   8:    -0.25000000    0.25000000   -0.25000000          1/64
   9:    -0.25000000    0.25000000    0.00000000          1/64
          ...
  63:     0.50000000    0.50000000    0.50000000          1/64

Wave functions: Plane wave expansion
  Cutoff energy: 450.000 eV
  Number of coefficients (min, max): 5542, 5616
  Pulay-stress correction: 0.000000 eV/Ang^3 (de/decut=0.000000)
  Using Numpy's FFT
  ScaLapack parameters: grid=1x1, blocksize=None
  Wavefunction extrapolation:
    Improved wavefunction reuse through dual PAW basis 

Occupation numbers: Fermi-Dirac:
  width: 0.1000  # eV
 

Eigensolver
   Davidson(niter=2) 

Densities:
  Coarse grid: 32*32*32 grid
  Fine grid: 64*64*64 grid
  Total Charge: 0.000000 

Density mixing:
  Method: separate
  Backend: pulay
  Linear mixing parameter: 0.05
  old densities: 5
  Damping of long wavelength oscillations: 50 

Hamiltonian:
  XC and Coulomb potentials evaluated on a 64*64*64 grid
  Using the PBE Exchange-Correlation functional
  External potential:
    NoExternalPotential
 

XC parameters: PBE with 2 nearest neighbor stencil

Memory estimate:
  Process memory now: 135.77 MiB
  Calculator: 73.12 MiB
    Density: 20.91 MiB
      Arrays: 6.50 MiB
      Localized functions: 11.91 MiB
      Mixer: 2.50 MiB
    Hamiltonian: 4.61 MiB
      Arrays: 4.25 MiB
      XC: 0.00 MiB
      Poisson: 0.00 MiB
      vbar: 0.36 MiB
    Wavefunctions: 47.60 MiB
      Arrays psit_nG: 28.54 MiB
      Eigensolver: 3.81 MiB
      Projections: 0.61 MiB
      Projectors: 12.62 MiB
      PW-descriptor: 2.02 MiB

Total number of cores used: 7
Parallelization over k-points: 7

Number of atoms: 12
Number of atomic orbitals: 38
Number of bands in calculation: 37
Number of valence electrons: 54
Bands to converge: occupied

... initialized

Initializing position-dependent things.

Density initialized from atomic densities
Creating initial wave functions:
  37 bands from LCAO basis set

     .---------------.  
    /|               |  
   / |               |  
  /  |               |  
 *   |               |  
 |   | H   H    H    |  
 |   |  N  C  N      |  
 |   |H        H     |  
 I   .---------------.  
 |  /               /   
 | I               /    
 |/               /     
 Pb------I-------*      

Atomic positions and initial magnetic moments

Positions:
   0 Pb     0.000000    0.000000    0.000000    ( 0.0000,  0.0000,  0.0000)
   1 I      3.180000    0.000000    0.000000    ( 0.0000,  0.0000,  0.0000)
   2 I      0.000000    3.180000    0.000000    ( 0.0000,  0.0000,  0.0000)
   3 I      0.000000    0.000000    3.180000    ( 0.0000,  0.0000,  0.0000)
   4 C      3.180000    3.180000    3.180000    ( 0.0000,  0.0000,  0.0000)
   5 N      1.900000    3.180000    3.180000    ( 0.0000,  0.0000,  0.0000)
   6 N      4.460000    3.180000    3.180000    ( 0.0000,  0.0000,  0.0000)
   7 H      3.180000    3.180000    4.280000    ( 0.0000,  0.0000,  0.0000)
   8 H      1.390000    4.063346    3.180000    ( 0.0000,  0.0000,  0.0000)
   9 H      1.390000    2.296654    3.180000    ( 0.0000,  0.0000,  0.0000)
  10 H      4.970000    4.063346    3.180000    ( 0.0000,  0.0000,  0.0000)
  11 H      4.970000    2.296654    3.180000    ( 0.0000,  0.0000,  0.0000)

Unit cell:
           periodic     x           y           z      points  spacing
  1. axis:    yes    6.360000    0.000000    0.000000    32     0.1988
  2. axis:    yes    0.000000    6.360000    0.000000    32     0.1988
  3. axis:    yes    0.000000    0.000000    6.360000    32     0.1988

  Lengths:   6.360000   6.360000   6.360000
  Angles:   90.000000  90.000000  90.000000

Effective grid spacing dv^(1/3) = 0.1988

     iter     time        total  log10-change:
                         energy   eigst   dens  force
iter:   1 04:52:38   -49.820477
iter:   2 04:52:44   -48.040756   -1.18  -0.96
iter:   3 04:52:50   -46.967881   -1.82  -1.05
iter:   4 04:52:57   -46.566407   -2.01  -1.12
iter:   5 04:53:03   -46.346229   -1.35  -1.20
iter:   6 04:53:09   -46.199034   -2.59  -1.50
iter:   7 04:53:16   -46.299695   -2.20  -1.61
iter:   8 04:53:22   -46.193088   -2.65  -1.71
iter:   9 04:53:28   -46.205767   -3.20  -1.88
iter:  10 04:53:35   -46.184318   -3.51  -2.08
iter:  11 04:53:41   -46.182926   -4.35  -2.46
iter:  12 04:53:47   -46.181114   -4.26  -2.52
iter:  13 04:53:54   -46.181090   -4.63  -2.66
iter:  14 04:54:00   -46.181021   -5.37  -2.77
iter:  15 04:54:06   -46.180863   -5.51  -2.83
iter:  16 04:54:13   -46.180191   -5.18  -2.88
iter:  17 04:54:19   -46.180324   -5.28  -3.12
iter:  18 04:54:25   -46.180311   -6.60  -3.27
iter:  19 04:54:32   -46.180377   -5.31  -3.28
iter:  20 04:54:38   -46.180362   -6.26  -3.65
iter:  21 04:54:44   -46.180291   -7.30  -3.78
iter:  22 04:54:51   -46.180301   -7.95c -3.93
iter:  23 04:54:57   -46.180332c  -7.08  -4.01c
iter:  24 04:55:04   -46.180327c  -7.78c -4.31c
iter:  25 04:55:12   -46.180327c  -8.30c -4.37c -2.69c

Converged after 25 iterations.

Dipole moment: (0.000000, 0.000000, 0.071072) |e|*Ang

Energy contributions relative to reference atoms: (reference = -1151950.372298)

Kinetic:        +71.388184
Potential:      -67.186102
External:        +0.000000
XC:             -50.078015
Entropy (-ST):   -0.226406
Local:           -0.191191
SIC:             +0.000000
--------------------------
Free energy:    -46.293530
Extrapolated:   -46.180327

Showing only first 2 kpts
 Kpt  Band  Eigenvalues  Occupancy
  0    25      1.02637    1.99999
  0    26      2.16117    1.44813
  0    27      2.34596    0.58505
  0    28      5.07377    0.00000

  1    25      1.00971    1.99999
  1    26      2.15167    1.48527
  1    27      2.40005    0.38804
  1    28      5.40907    0.00000


Fermi level: 2.25764

No gap
No difference between direct/indirect transitions

Forces in eV/Ang:
  0 Pb    0.00000    0.00000    0.00584
  1 I    -0.00000   -0.00000   -0.04155
  2 I    -0.00000    0.00000    0.05740
  3 I    -0.00000   -0.00000    0.00302
  4 C    -0.00000   -0.00000    1.52587
  5 N    -2.59910    0.00000   -2.32019
  6 N     2.59910   -0.00000   -2.32019
  7 H     0.00000    0.00000    3.15934
  8 H    -0.88967    0.69155   -0.01670
  9 H    -0.88967   -0.69155   -0.01670
 10 H     0.88967    0.69155   -0.01670
 11 H     0.88967   -0.69155   -0.01670

System changes: positions 

Initializing position-dependent things.

Density initialized from wave functions
     .---------------.  
    /|               |  
   / |               |  
  /  |               |  
 *   |   I           I  
 |   | H   H    H    |  
 |   |  N  C  N      |  
 |   |H        H     |  
 |   .---------------.  
 |  /               /   
 | /               /    
 |/               /     
 Pb--------------*      

Atomic positions and initial magnetic moments

Positions:
   0 Pb     0.000000    0.000000    0.000083    ( 0.0000,  0.0000,  0.0000)
   1 I      3.180000   -0.000000   -0.000594    ( 0.0000,  0.0000,  0.0000)
   2 I     -0.000000    3.180000    0.000820    ( 0.0000,  0.0000,  0.0000)
   3 I     -0.000000   -0.000000    3.180043    ( 0.0000,  0.0000,  0.0000)
   4 C      3.180000    3.180000    3.201798    ( 0.0000,  0.0000,  0.0000)
   5 N      1.862870    3.180000    3.146854    ( 0.0000,  0.0000,  0.0000)
   6 N      4.497130    3.180000    3.146854    ( 0.0000,  0.0000,  0.0000)
   7 H      3.180000    3.180000    4.325133    ( 0.0000,  0.0000,  0.0000)
   8 H      1.377290    4.073225    3.179761    ( 0.0000,  0.0000,  0.0000)
   9 H      1.377290    2.286775    3.179761    ( 0.0000,  0.0000,  0.0000)
  10 H      4.982710    4.073225    3.179761    ( 0.0000,  0.0000,  0.0000)
  11 H      4.982710    2.286775    3.179761    ( 0.0000,  0.0000,  0.0000)

Unit cell:
           periodic     x           y           z      points  spacing
  1. axis:    yes    6.360000    0.000000    0.000000    32     0.1988
  2. axis:    yes    0.000000    6.360000    0.000000    32     0.1988
  3. axis:    yes    0.000000    0.000000    6.360000    32     0.1988

  Lengths:   6.360000   6.360000   6.360000
  Angles:   90.000000  90.000000  90.000000

Effective grid spacing dv^(1/3) = 0.1988

     iter     time        total  log10-change:
                         energy   eigst   dens  force
iter:   1 04:55:20   -46.930102   -1.61
iter:   2 04:55:27   -46.817628   -2.96  -1.57
iter:   3 04:55:33   -46.710406   -2.74  -1.72
iter:   4 04:55:39   -46.703285   -3.71  -2.26
iter:   5 04:55:45   -46.693122   -3.34  -2.33
iter:   6 04:55:52   -46.695317   -3.88  -2.40
iter:   7 04:55:58   -46.691787   -4.22  -2.51
iter:   8 04:56:04   -46.691143   -4.14  -2.79
iter:   9 04:56:10   -46.691709   -4.07  -2.98
iter:  10 04:56:16   -46.690940   -4.83  -2.94
iter:  11 04:56:23   -46.690887   -5.16  -3.41
iter:  12 04:56:29   -46.690910c  -5.74  -3.57
iter:  13 04:56:35   -46.690882c  -6.32  -3.73
iter:  14 04:56:41   -46.690873c  -6.80  -4.05c
iter:  15 04:56:49   -46.690874c  -7.47c -4.10c
iter:  16 04:56:56   -46.690875c  -7.98c -4.19c -2.38c

Converged after 16 iterations.

Dipole moment: (0.000000, 0.000000, 0.049002) |e|*Ang

Energy contributions relative to reference atoms: (reference = -1151950.372298)

Kinetic:        +65.286179
Potential:      -62.842276
External:        +0.000000
XC:             -48.820095
Entropy (-ST):   -0.249310
Local:           -0.190028
SIC:             +0.000000
--------------------------
Free energy:    -46.815530
Extrapolated:   -46.690875

Showing only first 2 kpts
 Kpt  Band  Eigenvalues  Occupancy
  0    25      1.02382    1.99993
  0    26      1.99990    1.23058
  0    27      2.09426    0.76734
  0    28      5.03932    0.00000

  1    25      1.00204    1.99994
  1    26      1.99789    1.24008
  1    27      2.15154    0.51970
  1    28      5.39087    0.00000


Fermi level: 2.04686

No gap
No difference between direct/indirect transitions

Forces in eV/Ang:
  0 Pb   -0.00000    0.00000    0.00754
  1 I     0.00000    0.00000   -0.04419
  2 I     0.00000   -0.00000    0.03164
  3 I     0.00000    0.00000    0.01063
  4 C    -0.00000    0.00000    3.47068
  5 N    -0.49096    0.00000   -2.65535
  6 N     0.49096    0.00000   -2.65535
  7 H    -0.00000    0.00000    1.95950
  8 H    -0.87607    0.61861   -0.01702
  9 H    -0.87607   -0.61861   -0.01702
 10 H     0.87607    0.61861   -0.01702
 11 H     0.87607   -0.61861   -0.01702

System changes: positions 

Initializing position-dependent things.

Density initialized from wave functions
     .---------------.  
    /|               |  
   / |               |  
  /  |               |  
 *   |   I H         |  
 |   | H        H    |  
 |   | N   C   N     |  
 |   |H        H     |  
 |   .-----------I---.  
 |  /               /   
 | I               /    
 |/               /     
 *---------------Pb     

Atomic positions and initial magnetic moments

Positions:
   0 Pb    -0.000000    0.000000    0.000533    ( 0.0000,  0.0000,  0.0000)
   1 I      3.180000    0.000000   -0.003493    ( 0.0000,  0.0000,  0.0000)
   2 I     -0.000000    3.180000    0.003885    ( 0.0000,  0.0000,  0.0000)
   3 I     -0.000000    0.000000    3.180491    ( 0.0000,  0.0000,  0.0000)
   4 C      3.180000    3.180000    3.367349    ( 0.0000,  0.0000,  0.0000)
   5 N      1.754196    3.180000    2.978956    ( 0.0000,  0.0000,  0.0000)
   6 N      4.605804    3.180000    2.978956    ( 0.0000,  0.0000,  0.0000)
   7 H      3.180000    3.180000    4.500802    ( 0.0000,  0.0000,  0.0000)
   8 H      1.317454    4.117743    3.178620    ( 0.0000,  0.0000,  0.0000)
   9 H      1.317454    2.242257    3.178620    ( 0.0000,  0.0000,  0.0000)
  10 H      5.042546    4.117743    3.178620    ( 0.0000,  0.0000,  0.0000)
  11 H      5.042546    2.242257    3.178620    ( 0.0000,  0.0000,  0.0000)

Unit cell:
           periodic     x           y           z      points  spacing
  1. axis:    yes    6.360000    0.000000    0.000000    32     0.1988
  2. axis:    yes    0.000000    6.360000    0.000000    32     0.1988
  3. axis:    yes    0.000000    0.000000    6.360000    32     0.1988

  Lengths:   6.360000   6.360000   6.360000
  Angles:   90.000000  90.000000  90.000000

Effective grid spacing dv^(1/3) = 0.1988

     iter     time        total  log10-change:
                         energy   eigst   dens  force
iter:   1 04:57:05   -53.512509   -0.29
iter:   2 04:57:11   -51.073758   -1.69  -1.02
iter:   3 04:57:18   -52.567354   -0.74  -1.06
iter:   4 04:57:24   -49.366775   -1.55  -1.09
iter:   5 04:57:30   -49.377121   -2.85  -1.34
iter:   6 04:57:36   -49.024489   -2.69  -1.33
iter:   7 04:57:42   -48.578585   -2.43  -1.37
iter:   8 04:57:49   -49.335189   -2.08  -1.43
iter:   9 04:57:55   -48.124428   -1.57  -1.36
iter:  10 04:58:01   -48.276752   -2.33  -1.66
iter:  11 04:58:07   -48.207364   -3.57  -1.42
iter:  12 04:58:13   -48.999521   -2.42  -1.49
iter:  13 04:58:19   -48.195671   -1.96  -1.23
iter:  14 04:58:26   -48.129955   -3.48  -1.73
iter:  15 04:58:32   -48.067154   -3.01  -1.85
iter:  16 04:58:38   -48.081381   -3.78  -2.16
iter:  17 04:58:44   -48.065007   -3.67  -2.16
iter:  18 04:58:50   -48.061269   -4.18  -2.63
iter:  19 04:58:57   -48.069077   -4.24  -2.50
iter:  20 04:59:03   -48.064526   -4.95  -2.67
iter:  21 04:59:09   -48.064416   -6.17  -3.03
iter:  22 04:59:15   -48.064199   -5.49  -3.07
iter:  23 04:59:21   -48.064204   -5.95  -3.24
iter:  24 04:59:28   -48.064232c  -7.21  -3.27
iter:  25 04:59:34   -48.064341   -5.92  -3.31
iter:  26 04:59:40   -48.064310   -6.54  -3.70
iter:  27 04:59:48   -48.064306c  -7.47c -4.05c
iter:  28 04:59:55   -48.064304c  -8.19c -4.07c -2.53c

Converged after 28 iterations.

Dipole moment: (-0.000000, -0.000000, 0.083936) |e|*Ang

Energy contributions relative to reference atoms: (reference = -1151950.372298)

Kinetic:        +41.748556
Potential:      -45.699225
External:        +0.000000
XC:             -43.809866
Entropy (-ST):   -0.209548
Local:           -0.198996
SIC:             +0.000000
--------------------------
Free energy:    -48.169078
Extrapolated:   -48.064304

Showing only first 2 kpts
 Kpt  Band  Eigenvalues  Occupancy
  0    25      0.97764    1.99221
  0    26      1.38348    1.63074
  0    27      1.65274    0.46038
  0    28      4.90210    0.00000

  1    25      0.91328    1.99590
  1    26      1.52834    1.01838
  1    27      1.63636    0.52098
  1    28      5.27141    0.00000


Fermi level: 1.53201

No gap
No difference between direct/indirect transitions

Forces in eV/Ang:
  0 Pb   -0.00000    0.00000    0.01925
  1 I     0.00000   -0.00000   -0.09089
  2 I    -0.00000   -0.00000   -0.15330
  3 I    -0.00000    0.00000    0.02573
  4 C    -0.00000   -0.00000    3.13228
  5 N     3.71913    0.00000   -1.53376
  6 N    -3.71913    0.00000   -1.53376
  7 H    -0.00000    0.00000   -0.51909
  8 H    -0.14152   -0.92705    0.16716
  9 H    -0.14152    0.92705    0.16716
 10 H     0.14152   -0.92705    0.16716
 11 H     0.14152    0.92705    0.16716

System changes: positions 

Initializing position-dependent things.

Density initialized from wave functions
     .-------I-------.  
    /|               |  
   / |               |  
  /  |               |  
 *   |     H         |  
 |   | H        H    |  
 |   | N   C   N     |  
 |   |H        H     |  
 |   .-----------I---.  
 |  /               /   
 | /               I    
 |/               /     
 *---------------Pb     

Atomic positions and initial magnetic moments

Positions:
   0 Pb    -0.000000    0.000000    0.000829    ( 0.0000,  0.0000,  0.0000)
   1 I      3.180000   -0.000000   -0.005036    ( 0.0000,  0.0000,  0.0000)
   2 I     -0.000000    3.180000    0.002335    ( 0.0000,  0.0000,  0.0000)
   3 I     -0.000000    0.000000    3.180800    ( 0.0000,  0.0000,  0.0000)
   4 C      3.180000    3.180000    3.401931    ( 0.0000,  0.0000,  0.0000)
   5 N      1.768540    3.180000    2.945352    ( 0.0000,  0.0000,  0.0000)
   6 N      4.591460    3.180000    2.945352    ( 0.0000,  0.0000,  0.0000)
   7 H      3.180000    3.180000    4.526451    ( 0.0000,  0.0000,  0.0000)
   8 H      1.309481    4.109760    3.180904    ( 0.0000,  0.0000,  0.0000)
   9 H      1.309481    2.250240    3.180904    ( 0.0000,  0.0000,  0.0000)
  10 H      5.050519    4.109760    3.180904    ( 0.0000,  0.0000,  0.0000)
  11 H      5.050519    2.250240    3.180904    ( 0.0000,  0.0000,  0.0000)

Unit cell:
           periodic     x           y           z      points  spacing
  1. axis:    yes    6.360000    0.000000    0.000000    32     0.1988
  2. axis:    yes    0.000000    6.360000    0.000000    32     0.1988
  3. axis:    yes    0.000000    0.000000    6.360000    32     0.1988

  Lengths:   6.360000   6.360000   6.360000
  Angles:   90.000000  90.000000  90.000000

Effective grid spacing dv^(1/3) = 0.1988

     iter     time        total  log10-change:
                         energy   eigst   dens  force
iter:   1 05:00:03   -48.399407   -2.05
iter:   2 05:00:10   -48.392345   -3.22  -2.17
iter:   3 05:00:16   -48.378296   -3.46  -2.24
iter:   4 05:00:22   -48.380407   -4.47  -2.48
iter:   5 05:00:28   -48.379895   -5.06  -2.58
iter:   6 05:00:35   -48.378203   -4.28  -2.61
iter:   7 05:00:41   -48.377260   -5.09  -3.02
iter:   8 05:00:47   -48.377342   -5.41  -3.15
iter:   9 05:00:54   -48.377396   -5.94  -3.34
iter:  10 05:01:00   -48.377360   -6.73  -3.51
iter:  11 05:01:06   -48.377323   -6.93  -3.60
iter:  12 05:01:13   -48.377419   -6.78  -3.77
iter:  13 05:01:19   -48.377425   -7.56c -4.14c
iter:  14 05:01:26   -48.377410c  -7.87c -4.24c
iter:  15 05:01:34   -48.377415c  -8.04c -4.44c -2.29c

Converged after 15 iterations.

Dipole moment: (0.000000, 0.000000, 0.269279) |e|*Ang

Energy contributions relative to reference atoms: (reference = -1151950.372298)

Kinetic:        +40.227820
Potential:      -44.821707
External:        +0.000000
XC:             -43.487666
Entropy (-ST):   -0.195638
Local:           -0.198043
SIC:             +0.000000
--------------------------
Free energy:    -48.475234
Extrapolated:   -48.377415

Showing only first 2 kpts
 Kpt  Band  Eigenvalues  Occupancy
  0    25      0.97095    1.98875
  0    26      1.30748    1.71865
  0    27      1.63066    0.38866
  0    28      4.89210    0.00000

  1    25      0.90746    1.99402
  1    26      1.45435    1.16889
  1    27      1.61474    0.44097
  1    28      5.26106    0.00000


Fermi level: 1.48845

No gap
No difference between direct/indirect transitions

Forces in eV/Ang:
  0 Pb   -0.00000   -0.00000    0.01945
  1 I     0.00000    0.00000   -0.10466
  2 I     0.00000    0.00000   -0.20357
  3 I    -0.00000    0.00000    0.02941
  4 C     0.00000   -0.00000    2.20784
  5 N     3.51357   -0.00000   -1.00482
  6 N    -3.51357   -0.00000   -1.00482
  7 H     0.00000   -0.00000   -0.39108
  8 H     0.09286   -1.12331    0.13297
  9 H     0.09286    1.12331    0.13297
 10 H    -0.09286   -1.12331    0.13297
 11 H    -0.09286    1.12331    0.13297

System changes: positions 

Initializing position-dependent things.

Density initialized from wave functions
     .-------I-------.  
    /|               |  
   / |             I |  
  /  |               |  
 *   |     H         |  
 |   | H        H    |  
 |   |  N  C  N      |  
 |   |H        H     |  
 |   .-----------I---.  
 |  /               /   
 | /               /    
 |/               /     
 *---------------Pb     

Atomic positions and initial magnetic moments

Positions:
   0 Pb    -0.000000    0.000000    0.002637    ( 0.0000,  0.0000,  0.0000)
   1 I      3.180000   -0.000000   -0.014859    ( 0.0000,  0.0000,  0.0000)
   2 I     -0.000000    3.180000   -0.012928    ( 0.0000,  0.0000,  0.0000)
   3 I     -0.000000    0.000000    3.182960    ( 0.0000,  0.0000,  0.0000)
   4 C      3.180000    3.180000    3.519320    ( 0.0000,  0.0000,  0.0000)
   5 N      1.931874    3.180000    2.829931    ( 0.0000,  0.0000,  0.0000)
   6 N      4.428126    3.180000    2.829931    ( 0.0000,  0.0000,  0.0000)
   7 H      3.180000    3.180000    4.605585    ( 0.0000,  0.0000,  0.0000)
   8 H      1.299574    4.020689    3.195031    ( 0.0000,  0.0000,  0.0000)
   9 H      1.299574    2.339311    3.195031    ( 0.0000,  0.0000,  0.0000)
  10 H      5.060426    4.020689    3.195031    ( 0.0000,  0.0000,  0.0000)
  11 H      5.060426    2.339311    3.195031    ( 0.0000,  0.0000,  0.0000)

Unit cell:
           periodic     x           y           z      points  spacing
  1. axis:    yes    6.360000    0.000000    0.000000    32     0.1988
  2. axis:    yes    0.000000    6.360000    0.000000    32     0.1988
  3. axis:    yes    0.000000    0.000000    6.360000    32     0.1988

  Lengths:   6.360000   6.360000   6.360000
  Angles:   90.000000  90.000000  90.000000

Effective grid spacing dv^(1/3) = 0.1988

     iter     time        total  log10-change:
                         energy   eigst   dens  force
iter:   1 05:01:42   -50.031090   -0.71
iter:   2 05:01:49   -49.915354   -1.91  -1.58
iter:   3 05:01:55   -49.623755   -1.81  -1.63
iter:   4 05:02:01   -49.622160   -3.01  -1.63
iter:   5 05:02:07   -49.584646   -3.26  -1.86
iter:   6 05:02:13   -49.599029   -2.89  -1.98
iter:   7 05:02:20   -49.612059   -3.69  -2.16
iter:   8 05:02:26   -49.577774   -3.52  -2.15
iter:   9 05:02:32   -49.579297   -5.02  -2.67
iter:  10 05:02:38   -49.576728   -5.04  -2.68
iter:  11 05:02:44   -49.577821   -4.91  -2.90
iter:  12 05:02:51   -49.577033   -5.77  -3.22
iter:  13 05:02:57   -49.576914   -6.45  -3.33
iter:  14 05:03:03   -49.577003   -6.61  -3.41
iter:  15 05:03:09   -49.577149   -6.42  -3.45
iter:  16 05:03:15   -49.577187   -7.23  -3.65
iter:  17 05:03:22   -49.577196c  -6.72  -3.70
iter:  18 05:03:28   -49.577107   -7.25  -3.78
iter:  19 05:03:34   -49.577082   -7.46c -3.88
iter:  20 05:03:40   -49.577105c  -7.09  -3.99
iter:  21 05:03:46   -49.577148   -8.15c -4.20c
iter:  22 05:03:53   -49.577167   -8.54c -4.35c
iter:  23 05:04:00   -49.577188c  -8.41c -4.43c
iter:  24 05:04:08   -49.577193c  -8.65c -4.49c -2.52c

Converged after 24 iterations.

Dipole moment: (0.000000, 0.000000, 1.707069) |e|*Ang

Energy contributions relative to reference atoms: (reference = -1151950.372298)

Kinetic:        +40.957830
Potential:      -46.819610
External:        +0.000000
XC:             -43.484352
Entropy (-ST):   -0.086904
Local:           -0.187609
SIC:             +0.000000
--------------------------
Free energy:    -49.620645
Extrapolated:   -49.577193

Showing only first 2 kpts
 Kpt  Band  Eigenvalues  Occupancy
  0    25      0.88432    1.99219
  0    26      1.04545    1.96150
  0    27      1.73794    0.09538
  0    28      4.90636    0.00000

  1    25      0.94767    1.98534
  1    26      1.05200    1.95895
  1    27      1.72083    0.11220
  1    28      5.28950    0.00000


Fermi level: 1.43853

No gap
No difference between direct/indirect transitions

Forces in eV/Ang:
  0 Pb   -0.00000    0.00000    0.03184
  1 I    -0.00000   -0.00000   -0.15342
  2 I     0.00000   -0.00000   -0.38005
  3 I     0.00000    0.00000    0.02430
  4 C     0.00000    0.00000   -1.00742
  5 N     0.05849    0.00000    1.03467
  6 N    -0.05849    0.00000    1.03467
  7 H     0.00000   -0.00000    0.68524
  8 H     1.27390   -1.22690   -0.33246
  9 H     1.27390    1.22690   -0.33246
 10 H    -1.27390   -1.22690   -0.33246
 11 H    -1.27390    1.22690   -0.33246

System changes: positions 

Initializing position-dependent things.

Density initialized from wave functions
     .-------I-------.  
    /|               |  
   / |             I |  
  /  |               |  
 *   |     H         |  
 |   | H        H    |  
 |   |H N  C  NH     |  
 |   |               |  
 |   .-----------I---.  
 |  /               /   
 | /               /    
 |/               /     
 *---------------Pb     

Atomic positions and initial magnetic moments

Positions:
   0 Pb    -0.000000    0.000000    0.003277    ( 0.0000,  0.0000,  0.0000)
   1 I      3.180000   -0.000000   -0.017745    ( 0.0000,  0.0000,  0.0000)
   2 I     -0.000000    3.180000   -0.020292    ( 0.0000,  0.0000,  0.0000)
   3 I     -0.000000    0.000000    3.183479    ( 0.0000,  0.0000,  0.0000)
   4 C      3.180000    3.180000    3.510215    ( 0.0000,  0.0000,  0.0000)
   5 N      1.977381    3.180000    2.848242    ( 0.0000,  0.0000,  0.0000)
   6 N      4.382619    3.180000    2.848242    ( 0.0000,  0.0000,  0.0000)
   7 H      3.180000    3.180000    4.594385    ( 0.0000,  0.0000,  0.0000)
   8 H      1.323096    3.986602    3.192692    ( 0.0000,  0.0000,  0.0000)
   9 H      1.323096    2.373398    3.192692    ( 0.0000,  0.0000,  0.0000)
  10 H      5.036904    3.986602    3.192692    ( 0.0000,  0.0000,  0.0000)
  11 H      5.036904    2.373398    3.192692    ( 0.0000,  0.0000,  0.0000)

Unit cell:
           periodic     x           y           z      points  spacing
  1. axis:    yes    6.360000    0.000000    0.000000    32     0.1988
  2. axis:    yes    0.000000    6.360000    0.000000    32     0.1988
  3. axis:    yes    0.000000    0.000000    6.360000    32     0.1988

  Lengths:   6.360000   6.360000   6.360000
  Angles:   90.000000  90.000000  90.000000

Effective grid spacing dv^(1/3) = 0.1988

     iter     time        total  log10-change:
                         energy   eigst   dens  force
iter:   1 05:04:16   -50.162934   -1.71
iter:   2 05:04:22   -50.068479   -3.10  -1.71
iter:   3 05:04:29   -49.837640   -1.96  -1.76
iter:   4 05:04:35   -49.802460   -3.58  -1.82
iter:   5 05:04:41   -49.823461   -3.45  -2.25
iter:   6 05:04:47   -49.796946   -3.41  -2.27
iter:   7 05:04:54   -49.799936   -4.36  -2.66
iter:   8 05:05:00   -49.802799   -4.18  -2.74
iter:   9 05:05:06   -49.796770   -4.61  -2.74
iter:  10 05:05:12   -49.798373   -5.31  -3.18
iter:  11 05:05:19   -49.797029   -5.42  -3.20
iter:  12 05:05:25   -49.797060   -6.17  -3.57
iter:  13 05:05:31   -49.797065c  -7.12  -3.66
iter:  14 05:05:37   -49.797018c  -6.60  -3.71
iter:  15 05:05:44   -49.797107   -6.80  -3.91
iter:  16 05:05:50   -49.797082   -7.47c -3.90
iter:  17 05:05:56   -49.797070c  -7.94c -3.93
iter:  18 05:06:02   -49.797084c  -6.77  -3.95
iter:  19 05:06:09   -49.797055c  -7.39  -4.34c
iter:  20 05:06:16   -49.797065c  -8.21c -4.76c
iter:  21 05:06:24   -49.797077c  -8.94c -4.86c -3.02c

Converged after 21 iterations.

Dipole moment: (0.000000, 0.000000, 2.253200) |e|*Ang

Energy contributions relative to reference atoms: (reference = -1151950.372298)

Kinetic:        +48.799510
Potential:      -52.828694
External:        +0.000000
XC:             -45.536765
Entropy (-ST):   -0.071392
Local:           -0.195433
SIC:             +0.000000
--------------------------
Free energy:    -49.832773
Extrapolated:   -49.797077

Showing only first 2 kpts
 Kpt  Band  Eigenvalues  Occupancy
  0    25      0.85782    1.99598
  0    26      1.04597    1.97394
  0    27      1.80622    0.07286
  0    28      4.93103    0.00000

  1    25      0.95676    1.98924
  1    26      1.00793    1.98211
  1    27      1.78891    0.08603
  1    28      5.31449    0.00000


Fermi level: 1.47869

No gap
No difference between direct/indirect transitions

Forces in eV/Ang:
  0 Pb    0.00000   -0.00000    0.03275
  1 I    -0.00000    0.00000   -0.14650
  2 I    -0.00000    0.00000   -0.36091
  3 I     0.00000    0.00000    0.01703
  4 C    -0.00000   -0.00000    0.53567
  5 N    -1.16646   -0.00000   -0.14212
  6 N     1.16646    0.00000   -0.14212
  7 H    -0.00000    0.00000    0.85716
  8 H     1.11557   -0.65593   -0.17761
  9 H     1.11557    0.65593   -0.17761
 10 H    -1.11557   -0.65593   -0.17761
 11 H    -1.11557    0.65593   -0.17761

System changes: positions 

Initializing position-dependent things.

Density initialized from wave functions
     .-------I-------.  
    /|               |  
   / |             I |  
  /  |               |  
 *   |     H         |  
 |   |               |  
 |   |HHN  C  NHH    |  
 |   |               |  
 I   .---------------.  
 |  /               /   
 | /               /    
 |/               /     
 *---------------Pb     

Atomic positions and initial magnetic moments

Positions:
   0 Pb    -0.000000    0.000000    0.004396    ( 0.0000,  0.0000,  0.0000)
   1 I      3.180000   -0.000000   -0.022898    ( 0.0000,  0.0000,  0.0000)
   2 I     -0.000000    3.180000   -0.032117    ( 0.0000,  0.0000,  0.0000)
   3 I      0.000000    0.000000    3.184272    ( 0.0000,  0.0000,  0.0000)
   4 C      3.180000    3.180000    3.535872    ( 0.0000,  0.0000,  0.0000)
   5 N      1.991202    3.180000    2.839928    ( 0.0000,  0.0000,  0.0000)
   6 N      4.368798    3.180000    2.839928    ( 0.0000,  0.0000,  0.0000)
   7 H      3.180000    3.180000    4.614933    ( 0.0000,  0.0000,  0.0000)
   8 H      1.353951    3.951668    3.188555    ( 0.0000,  0.0000,  0.0000)
   9 H      1.353951    2.408332    3.188555    ( 0.0000,  0.0000,  0.0000)
  10 H      5.006049    3.951668    3.188555    ( 0.0000,  0.0000,  0.0000)
  11 H      5.006049    2.408332    3.188555    ( 0.0000,  0.0000,  0.0000)

Unit cell:
           periodic     x           y           z      points  spacing
  1. axis:    yes    6.360000    0.000000    0.000000    32     0.1988
  2. axis:    yes    0.000000    6.360000    0.000000    32     0.1988
  3. axis:    yes    0.000000    0.000000    6.360000    32     0.1988

  Lengths:   6.360000   6.360000   6.360000
  Angles:   90.000000  90.000000  90.000000

Effective grid spacing dv^(1/3) = 0.1988

     iter     time        total  log10-change:
                         energy   eigst   dens  force
iter:   1 05:06:32   -50.034215   -2.00
iter:   2 05:06:39   -50.011783   -3.35  -1.96
iter:   3 05:06:45   -49.943269   -3.06  -2.01
iter:   4 05:06:51   -49.973202   -3.79  -2.28
iter:   5 05:06:57   -49.944905   -3.27  -2.18
iter:   6 05:07:04   -49.938152   -3.64  -2.58
iter:   7 05:07:10   -49.942911   -3.85  -2.64
iter:   8 05:07:16   -49.939547   -5.06  -2.91
iter:   9 05:07:22   -49.939030   -5.45  -3.16
iter:  10 05:07:28   -49.939421   -5.46  -3.17
iter:  11 05:07:34   -49.939376   -6.07  -3.58
iter:  12 05:07:41   -49.939341   -6.61  -3.63
iter:  13 05:07:47   -49.939284   -6.40  -3.67
iter:  14 05:07:53   -49.939230   -6.69  -3.91
iter:  15 05:07:59   -49.939246c  -6.83  -4.16c
iter:  16 05:08:05   -49.939287   -7.45c -4.23c
iter:  17 05:08:13   -49.939284c  -7.66c -4.43c
iter:  18 05:08:20   -49.939278c  -8.04c -4.60c -2.88c

Converged after 18 iterations.

Dipole moment: (0.000000, -0.000000, 3.177669) |e|*Ang

Energy contributions relative to reference atoms: (reference = -1151950.372298)

Kinetic:        +53.797763
Potential:      -56.716537
External:        +0.000000
XC:             -46.785280
Entropy (-ST):   -0.072356
Local:           -0.199046
SIC:             +0.000000
--------------------------
Free energy:    -49.975456
Extrapolated:   -49.939278

Showing only first 2 kpts
 Kpt  Band  Eigenvalues  Occupancy
  0    25      0.80228    1.99711
  0    26      1.00724    1.97775
  0    27      1.76836    0.08428
  0    28      4.95997    0.00000

  1    25      0.89469    1.99273
  1    26      0.95718    1.98645
  1    27      1.75192    0.09859
  1    28      5.31587    0.00000


Fermi level: 1.45598

No gap
No difference between direct/indirect transitions

Forces in eV/Ang:
  0 Pb   -0.00000    0.00000    0.03414
  1 I     0.00000   -0.00000   -0.15821
  2 I     0.00000   -0.00000   -0.34952
  3 I     0.00000    0.00000    0.01104
  4 C     0.00000    0.00000   -0.37422
  5 N    -0.12056   -0.00000   -0.23243
  6 N     0.12056   -0.00000   -0.23243
  7 H    -0.00000   -0.00000    0.98666
  8 H     0.47641    0.23873    0.06158
  9 H     0.47641   -0.23873    0.06158
 10 H    -0.47641    0.23873    0.06158
 11 H    -0.47641   -0.23873    0.06158

System changes: positions 

Initializing position-dependent things.

Density initialized from wave functions
     .-------I-------.  
    /|               |  
   / |             I |  
  /  |               |  
 *   |     H         |  
 |   |               |  
 |   |HHN  C  NHH    |  
 |   |               |  
 I   .---------------.  
 |  /               /   
 | /               /    
 |/               /     
 *---------------Pb     

Atomic positions and initial magnetic moments

Positions:
   0 Pb    -0.000000    0.000000    0.005239    ( 0.0000,  0.0000,  0.0000)
   1 I      3.180000   -0.000000   -0.026819    ( 0.0000,  0.0000,  0.0000)
   2 I     -0.000000    3.180000   -0.040729    ( 0.0000,  0.0000,  0.0000)
   3 I      0.000000    0.000000    3.184663    ( 0.0000,  0.0000,  0.0000)
   4 C      3.180000    3.180000    3.538523    ( 0.0000,  0.0000,  0.0000)
   5 N      1.994200    3.180000    2.832261    ( 0.0000,  0.0000,  0.0000)
   6 N      4.365800    3.180000    2.832261    ( 0.0000,  0.0000,  0.0000)
   7 H      3.180000    3.180000    4.638047    ( 0.0000,  0.0000,  0.0000)
   8 H      1.368089    3.948176    3.188386    ( 0.0000,  0.0000,  0.0000)
   9 H      1.368089    2.411824    3.188386    ( 0.0000,  0.0000,  0.0000)
  10 H      4.991911    3.948176    3.188386    ( 0.0000,  0.0000,  0.0000)
  11 H      4.991911    2.411824    3.188386    ( 0.0000,  0.0000,  0.0000)

Unit cell:
           periodic     x           y           z      points  spacing
  1. axis:    yes    6.360000    0.000000    0.000000    32     0.1988
  2. axis:    yes    0.000000    6.360000    0.000000    32     0.1988
  3. axis:    yes    0.000000    0.000000    6.360000    32     0.1988

  Lengths:   6.360000   6.360000   6.360000
  Angles:   90.000000  90.000000  90.000000

Effective grid spacing dv^(1/3) = 0.1988

     iter     time        total  log10-change:
                         energy   eigst   dens  force
iter:   1 05:08:29   -49.975829   -2.84
iter:   2 05:08:35   -49.976232   -4.23  -2.37
iter:   3 05:08:41   -49.979653   -4.08  -2.50
iter:   4 05:08:48   -49.978788   -4.45  -2.77
iter:   5 05:08:54   -49.977031   -4.38  -2.89
iter:   6 05:09:00   -49.978021   -5.06  -3.10
iter:   7 05:09:07   -49.977339   -5.45  -3.46
iter:   8 05:09:13   -49.977228   -6.44  -3.69
iter:   9 05:09:19   -49.977339   -6.30  -3.75
iter:  10 05:09:26   -49.977286   -7.20  -4.04c
iter:  11 05:09:32   -49.977300c  -7.35  -4.18c
iter:  12 05:09:39   -49.977290c  -7.66c -4.48c
iter:  13 05:09:47   -49.977289c  -8.96c -4.66c -2.81c

Converged after 13 iterations.

Dipole moment: (0.000000, -0.000000, 3.849961) |e|*Ang

Energy contributions relative to reference atoms: (reference = -1151950.372298)

Kinetic:        +54.023144
Potential:      -56.957143
External:        +0.000000
XC:             -46.807639
Entropy (-ST):   -0.071838
Local:           -0.199731
SIC:             +0.000000
--------------------------
Free energy:    -50.013208
Extrapolated:   -49.977289

Showing only first 2 kpts
 Kpt  Band  Eigenvalues  Occupancy
  0    25      0.79448    1.99733
  0    26      1.00054    1.97920
  0    27      1.76645    0.08591
  0    28      4.96763    0.00000

  1    25      0.87906    1.99378
  1    26      0.95097    1.98728
  1    27      1.75038    0.10013
  1    28      5.31886    0.00000


Fermi level: 1.45608

No gap
No difference between direct/indirect transitions

Forces in eV/Ang:
  0 Pb    0.00000   -0.00000    0.03528
  1 I    -0.00000    0.00000   -0.15969
  2 I     0.00000    0.00000   -0.34770
  3 I     0.00000   -0.00000    0.00798
  4 C    -0.00000    0.00000   -0.01181
  5 N     0.18988    0.00000   -0.14880
  6 N    -0.18988    0.00000   -0.14880
  7 H     0.00000   -0.00000    0.29376
  8 H     0.27858    0.39835    0.10477
  9 H     0.27858   -0.39835    0.10477
 10 H    -0.27858    0.39835    0.10477
 11 H    -0.27858   -0.39835    0.10477

System changes: positions 

Initializing position-dependent things.

Density initialized from wave functions
     .-------I-------.  
    /|               |  
   / |             I |  
  /  |               |  
 *   |     H         |  
 |   |               |  
 |   |HHN  C  NHH    |  
 |   |               |  
 I   .---------------.  
 |  /               /   
 | /               /    
 |/               /     
 *---------------Pb     

Atomic positions and initial magnetic moments

Positions:
   0 Pb    -0.000000    0.000000    0.006679    ( 0.0000,  0.0000,  0.0000)
   1 I      3.180000   -0.000000   -0.033402    ( 0.0000,  0.0000,  0.0000)
   2 I     -0.000000    3.180000   -0.055194    ( 0.0000,  0.0000,  0.0000)
   3 I      0.000000    0.000000    3.185127    ( 0.0000,  0.0000,  0.0000)
   4 C      3.180000    3.180000    3.539844    ( 0.0000,  0.0000,  0.0000)
   5 N      1.997466    3.180000    2.825135    ( 0.0000,  0.0000,  0.0000)
   6 N      4.362534    3.180000    2.825135    ( 0.0000,  0.0000,  0.0000)
   7 H      3.180000    3.180000    4.660409    ( 0.0000,  0.0000,  0.0000)
   8 H      1.385787    3.954348    3.190183    ( 0.0000,  0.0000,  0.0000)
   9 H      1.385787    2.405652    3.190183    ( 0.0000,  0.0000,  0.0000)
  10 H      4.974213    3.954348    3.190183    ( 0.0000,  0.0000,  0.0000)
  11 H      4.974213    2.405652    3.190183    ( 0.0000,  0.0000,  0.0000)

Unit cell:
           periodic     x           y           z      points  spacing
  1. axis:    yes    6.360000    0.000000    0.000000    32     0.1988
  2. axis:    yes    0.000000    6.360000    0.000000    32     0.1988
  3. axis:    yes    0.000000    0.000000    6.360000    32     0.1988

  Lengths:   6.360000   6.360000   6.360000
  Angles:   90.000000  90.000000  90.000000

Effective grid spacing dv^(1/3) = 0.1988

     iter     time        total  log10-change:
                         energy   eigst   dens  force
iter:   1 05:09:55   -50.007879   -2.82
iter:   2 05:10:02   -50.008489   -4.23  -2.29
iter:   3 05:10:08   -50.012609   -4.34  -2.43
iter:   4 05:10:14   -50.013182   -4.66  -2.76
iter:   5 05:10:20   -50.011176   -4.40  -2.85
iter:   6 05:10:27   -50.010921   -5.02  -3.15
iter:   7 05:10:33   -50.011585   -5.60  -3.49
iter:   8 05:10:39   -50.011469   -6.01  -3.66
iter:   9 05:10:45   -50.011422   -6.30  -3.75
iter:  10 05:10:51   -50.011404   -7.11  -4.13c
iter:  11 05:10:58   -50.011402c  -8.33c -4.23c
iter:  12 05:11:05   -50.011414c  -7.09  -4.25c
iter:  13 05:11:12   -50.011415c  -7.53c -4.56c -1.81c

Converged after 13 iterations.

Dipole moment: (-0.000000, -0.000001, 4.963398) |e|*Ang

Energy contributions relative to reference atoms: (reference = -1151950.372298)

Kinetic:        +53.641423
Potential:      -56.764739
External:        +0.000000
XC:             -46.651667
Entropy (-ST):   -0.070182
Local:           -0.201341
SIC:             +0.000000
--------------------------
Free energy:    -50.046506
Extrapolated:   -50.011415

Showing only first 2 kpts
 Kpt  Band  Eigenvalues  Occupancy
  0    25      0.79329    1.99751
  0    26      0.99779    1.98089
  0    27      1.77390    0.08456
  0    28      4.97006    0.00000

  1    25      0.87166    1.99455
  1    26      0.94902    1.98822
  1    27      1.75825    0.09818
  1    28      5.32204    0.00000


Fermi level: 1.46187

No gap
No difference between direct/indirect transitions

Forces in eV/Ang:
  0 Pb   -0.00000   -0.00000    0.03834
  1 I     0.00000   -0.00000   -0.15993
  2 I     0.00000    0.00000   -0.33513
  3 I     0.00000    0.00000    0.00328
  4 C    -0.00000    0.00000    0.31269
  5 N     0.29070   -0.00000    0.02250
  6 N    -0.29070    0.00000    0.02250
  7 H     0.00000   -0.00000   -0.32968
  8 H     0.15179    0.34664    0.09134
  9 H     0.15179   -0.34664    0.09134
 10 H    -0.15179    0.34664    0.09134
 11 H    -0.15179   -0.34664    0.09134

System changes: positions 

Initializing position-dependent things.

Density initialized from wave functions
     .-------I-------.  
    /|               |  
   / |             I |  
  /  |               |  
 *   |     H         |  
 |   | H        H    |  
 |   |H N  C  NH     |  
 |   |               |  
 I   .---------------.  
 |  /               /   
 | /               /    
 |/               /     
 *---------------Pb     

Atomic positions and initial magnetic moments

Positions:
   0 Pb    -0.000000    0.000000    0.008791    ( 0.0000,  0.0000,  0.0000)
   1 I      3.180000   -0.000000   -0.042641    ( 0.0000,  0.0000,  0.0000)
   2 I     -0.000000    3.180000   -0.075416    ( 0.0000,  0.0000,  0.0000)
   3 I      0.000000    0.000000    3.185568    ( 0.0000,  0.0000,  0.0000)
   4 C      3.180000    3.180000    3.540327    ( 0.0000,  0.0000,  0.0000)
   5 N      2.001085    3.180000    2.824630    ( 0.0000,  0.0000,  0.0000)
   6 N      4.358915    3.180000    2.824630    ( 0.0000,  0.0000,  0.0000)
   7 H      3.180000    3.180000    4.671969    ( 0.0000,  0.0000,  0.0000)
   8 H      1.407641    3.966672    3.193204    ( 0.0000,  0.0000,  0.0000)
   9 H      1.407641    2.393328    3.193204    ( 0.0000,  0.0000,  0.0000)
  10 H      4.952359    3.966672    3.193204    ( 0.0000,  0.0000,  0.0000)
  11 H      4.952359    2.393328    3.193204    ( 0.0000,  0.0000,  0.0000)

Unit cell:
           periodic     x           y           z      points  spacing
  1. axis:    yes    6.360000    0.000000    0.000000    32     0.1988
  2. axis:    yes    0.000000    6.360000    0.000000    32     0.1988
  3. axis:    yes    0.000000    0.000000    6.360000    32     0.1988

  Lengths:   6.360000   6.360000   6.360000
  Angles:   90.000000  90.000000  90.000000

Effective grid spacing dv^(1/3) = 0.1988

     iter     time        total  log10-change:
                         energy   eigst   dens  force
iter:   1 05:11:20   -50.044811   -2.79
iter:   2 05:11:27   -50.043622   -4.30  -2.57
iter:   3 05:11:33   -50.039055   -4.37  -2.61
iter:   4 05:11:39   -50.038986   -4.67  -2.77
iter:   5 05:11:46   -50.039758   -4.44  -2.96
iter:   6 05:11:52   -50.039236   -5.40  -3.21
iter:   7 05:11:58   -50.039294   -5.49  -3.46
iter:   8 05:12:04   -50.039359   -6.52  -3.61
iter:   9 05:12:10   -50.039292   -6.12  -3.66
iter:  10 05:12:17   -50.039292   -6.97  -3.95
iter:  11 05:12:24   -50.039298c  -7.43c -4.11c
iter:  12 05:12:32   -50.039305c  -8.01c -4.22c -2.44c

Converged after 12 iterations.

Dipole moment: (-0.000000, -0.000001, 6.482428) |e|*Ang

Energy contributions relative to reference atoms: (reference = -1151950.372298)

Kinetic:        +53.904436
Potential:      -57.031918
External:        +0.000000
XC:             -46.674533
Entropy (-ST):   -0.068526
Local:           -0.203028
SIC:             +0.000000
--------------------------
Free energy:    -50.073568
Extrapolated:   -50.039305

Showing only first 2 kpts
 Kpt  Band  Eigenvalues  Occupancy
  0    25      0.79791    1.99755
  0    26      0.99688    1.98222
  0    27      1.78303    0.08235
  0    28      4.96572    0.00000

  1    25      0.87380    1.99477
  1    26      0.94880    1.98897
  1    27      1.76782    0.09524
  1    28      5.32320    0.00000


Fermi level: 1.46825

No gap
No difference between direct/indirect transitions

Forces in eV/Ang:
  0 Pb    0.00000   -0.00000    0.02918
  1 I    -0.00000   -0.00000   -0.16163
  2 I    -0.00000    0.00000   -0.31324
  3 I     0.00000   -0.00000    0.00432
  4 C    -0.00000    0.00000    0.54811
  5 N     0.26736    0.00000    0.05445
  6 N    -0.26736   -0.00000    0.05445
  7 H    -0.00000    0.00000   -0.61571
  8 H     0.01438    0.22063    0.08094
  9 H     0.01438   -0.22063    0.08094
 10 H    -0.01438    0.22063    0.08094
 11 H    -0.01438   -0.22063    0.08094

System changes: positions 

Initializing position-dependent things.

Density initialized from wave functions
     .-------I-------.  
    /|               |  
   / |             I |  
  /  |               |  
 *   |     H         |  
 |   | H        H    |  
 |   |H N  C  NH     |  
 |   |               |  
 I   .---------------.  
 |  /               /   
 | /               /    
 |/               /     
 *---------------Pb     

Atomic positions and initial magnetic moments

Positions:
   0 Pb    -0.000000    0.000000    0.010954    ( 0.0000,  0.0000,  0.0000)
   1 I      3.180000   -0.000000   -0.053062    ( 0.0000,  0.0000,  0.0000)
   2 I     -0.000000    3.180000   -0.097400    ( 0.0000,  0.0000,  0.0000)
   3 I      0.000000    0.000000    3.186029    ( 0.0000,  0.0000,  0.0000)
   4 C      3.180000    3.180000    3.545476    ( 0.0000,  0.0000,  0.0000)
   5 N      2.006858    3.180000    2.826153    ( 0.0000,  0.0000,  0.0000)
   6 N      4.353142    3.180000    2.826153    ( 0.0000,  0.0000,  0.0000)
   7 H      3.180000    3.180000    4.672833    ( 0.0000,  0.0000,  0.0000)
   8 H      1.425952    3.978789    3.197226    ( 0.0000,  0.0000,  0.0000)
   9 H      1.425952    2.381211    3.197226    ( 0.0000,  0.0000,  0.0000)
  10 H      4.934048    3.978789    3.197226    ( 0.0000,  0.0000,  0.0000)
  11 H      4.934048    2.381211    3.197226    ( 0.0000,  0.0000,  0.0000)

Unit cell:
           periodic     x           y           z      points  spacing
  1. axis:    yes    6.360000    0.000000    0.000000    32     0.1988
  2. axis:    yes    0.000000    6.360000    0.000000    32     0.1988
  3. axis:    yes    0.000000    0.000000    6.360000    32     0.1988

  Lengths:   6.360000   6.360000   6.360000
  Angles:   90.000000  90.000000  90.000000

Effective grid spacing dv^(1/3) = 0.1988

     iter     time        total  log10-change:
                         energy   eigst   dens  force
iter:   1 05:12:40   -50.073106   -2.82
iter:   2 05:12:46   -50.068749   -4.41  -2.42
iter:   3 05:12:53   -50.059182   -4.17  -2.50
iter:   4 05:12:59   -50.063421   -5.07  -2.74
iter:   5 05:13:05   -50.058510   -3.97  -2.72
iter:   6 05:13:12   -50.059812   -5.25  -3.10
iter:   7 05:13:18   -50.059085   -5.51  -3.27
iter:   8 05:13:24   -50.059086   -6.16  -3.55
iter:   9 05:13:30   -50.059038c  -6.15  -3.60
iter:  10 05:13:37   -50.059031   -6.39  -3.91
iter:  11 05:13:44   -50.059042c  -7.55c -4.16c
iter:  12 05:13:51   -50.059089   -7.56c -4.20c
iter:  13 05:13:58   -50.059088c  -8.00c -4.37c -2.28c

Converged after 13 iterations.

Dipole moment: (-0.000000, -0.000001, 8.112274) |e|*Ang

Energy contributions relative to reference atoms: (reference = -1151950.372298)

Kinetic:        +54.244370
Potential:      -57.352510
External:        +0.000000
XC:             -46.715098
Entropy (-ST):   -0.065869
Local:           -0.202916
SIC:             +0.000000
--------------------------
Free energy:    -50.092023
Extrapolated:   -50.059088

Showing only first 2 kpts
 Kpt  Band  Eigenvalues  Occupancy
  0    25      0.79896    1.99771
  0    26      0.99495    1.98382
  0    27      1.79632    0.07800
  0    28      4.95630    0.00000

  1    25      0.87336    1.99518
  1    26      0.94748    1.98991
  1    27      1.78154    0.08987
  1    28      5.32065    0.00000


Fermi level: 1.47588

No gap
No difference between direct/indirect transitions

Forces in eV/Ang:
  0 Pb    0.00000   -0.00000    0.03380
  1 I     0.00000   -0.00000   -0.16257
  2 I    -0.00000    0.00000   -0.28089
  3 I     0.00000   -0.00000   -0.00313
  4 C    -0.00000   -0.00000    0.38739
  5 N     0.10107   -0.00000    0.14209
  6 N    -0.10107    0.00000    0.14209
  7 H    -0.00000   -0.00000   -0.49640
  8 H    -0.05240    0.03861    0.04376
  9 H    -0.05240   -0.03860    0.04376
 10 H     0.05240    0.03860    0.04376
 11 H     0.05240   -0.03861    0.04376

System changes: positions 

Initializing position-dependent things.

Density initialized from wave functions
     .-------I-------.  
    /|               |  
   / |             I |  
  /  |               |  
 *   |     H         |  
 |   | H        H    |  
 |   |H N  C  NH     |  
 |   |               |  
 I   .---------------Pb 
 |  /               /   
 | /               /    
 |/               /     
 *---------------*      

Atomic positions and initial magnetic moments

Positions:
   0 Pb    -0.000000   -0.000000    0.012662    ( 0.0000,  0.0000,  0.0000)
   1 I      3.180000   -0.000000   -0.061159    ( 0.0000,  0.0000,  0.0000)
   2 I     -0.000000    3.180000   -0.113374    ( 0.0000,  0.0000,  0.0000)
   3 I      0.000000    0.000000    3.186136    ( 0.0000,  0.0000,  0.0000)
   4 C      3.180000    3.180000    3.549068    ( 0.0000,  0.0000,  0.0000)
   5 N      2.009128    3.180000    2.832664    ( 0.0000,  0.0000,  0.0000)
   6 N      4.350872    3.180000    2.832664    ( 0.0000,  0.0000,  0.0000)
   7 H      3.180000    3.180000    4.663618    ( 0.0000,  0.0000,  0.0000)
   8 H      1.434670    3.986070    3.200061    ( 0.0000,  0.0000,  0.0000)
   9 H      1.434670    2.373930    3.200061    ( 0.0000,  0.0000,  0.0000)
  10 H      4.925330    3.986070    3.200061    ( 0.0000,  0.0000,  0.0000)
  11 H      4.925330    2.373930    3.200061    ( 0.0000,  0.0000,  0.0000)

Unit cell:
           periodic     x           y           z      points  spacing
  1. axis:    yes    6.360000    0.000000    0.000000    32     0.1988
  2. axis:    yes    0.000000    6.360000    0.000000    32     0.1988
  3. axis:    yes    0.000000    0.000000    6.360000    32     0.1988

  Lengths:   6.360000   6.360000   6.360000
  Angles:   90.000000  90.000000  90.000000

Effective grid spacing dv^(1/3) = 0.1988

     iter     time        total  log10-change:
                         energy   eigst   dens  force
iter:   1 05:14:07   -50.090425   -3.10
iter:   2 05:14:13   -50.082940   -4.51  -2.35
iter:   3 05:14:19   -50.067107   -3.92  -2.44
iter:   4 05:14:26   -50.073172   -4.92  -2.85
iter:   5 05:14:32   -50.066590   -4.23  -2.75
iter:   6 05:14:38   -50.069068   -5.24  -3.05
iter:   7 05:14:44   -50.067969   -5.37  -3.31
iter:   8 05:14:50   -50.068731   -6.03  -3.61
iter:   9 05:14:56   -50.068342   -6.81  -3.68
iter:  10 05:15:03   -50.068293   -6.45  -3.89
iter:  11 05:15:10   -50.068323c  -7.69c -4.28c
iter:  12 05:15:18   -50.068338c  -7.77c -4.41c -2.11c

Converged after 12 iterations.

Dipole moment: (-0.000000, -0.000000, 9.275936) |e|*Ang

Energy contributions relative to reference atoms: (reference = -1151950.372298)

Kinetic:        +55.022922
Potential:      -57.941928
External:        +0.000000
XC:             -46.912803
Entropy (-ST):   -0.065073
Local:           -0.203993
SIC:             +0.000000
--------------------------
Free energy:    -50.100874
Extrapolated:   -50.068338

Showing only first 2 kpts
 Kpt  Band  Eigenvalues  Occupancy
  0    25      0.80114    1.99766
  0    26      0.99257    1.98421
  0    27      1.79884    0.07617
  0    28      4.94501    0.00000

  1    25      0.87781    1.99496
  1    26      0.94523    1.99014
  1    27      1.78423    0.08763
  1    28      5.31473    0.00000


Fermi level: 1.47593

No gap
No difference between direct/indirect transitions

Forces in eV/Ang:
  0 Pb    0.00000    0.00000    0.03522
  1 I     0.00000   -0.00000   -0.16331
  2 I     0.00000   -0.00000   -0.25484
  3 I    -0.00000    0.00000   -0.00768
  4 C     0.00000   -0.00000    0.16081
  5 N    -0.00848   -0.00000    0.05822
  6 N     0.00848   -0.00000    0.05822
  7 H    -0.00000    0.00000   -0.13292
  8 H    -0.09559   -0.04634    0.04354
  9 H    -0.09559    0.04634    0.04354
 10 H     0.09559   -0.04634    0.04354
 11 H     0.09559    0.04634    0.04354

System changes: positions 

Initializing position-dependent things.

Density initialized from wave functions
     .-------I-------.  
    /|               |  
   / |             I |  
  /  |               |  
 *   |     H         |  
 |   | H        H    |  
 |   |H N  C  NH     |  
 |   |               |  
 I   .---------------Pb 
 |  /               /   
 | /               /    
 |/               /     
 *---------------*      

Atomic positions and initial magnetic moments

Positions:
   0 Pb    -0.000000   -0.000000    0.013766    ( 0.0000,  0.0000,  0.0000)
   1 I      3.180000   -0.000000   -0.066362    ( 0.0000,  0.0000,  0.0000)
   2 I     -0.000000    3.180000   -0.122218    ( 0.0000,  0.0000,  0.0000)
   3 I      0.000000    0.000000    3.186008    ( 0.0000,  0.0000,  0.0000)
   4 C      3.180000    3.180000    3.552963    ( 0.0000,  0.0000,  0.0000)
   5 N      2.010373    3.180000    2.835084    ( 0.0000,  0.0000,  0.0000)
   6 N      4.349627    3.180000    2.835084    ( 0.0000,  0.0000,  0.0000)
   7 H      3.180000    3.180000    4.658476    ( 0.0000,  0.0000,  0.0000)
   8 H      1.434039    3.986771    3.201863    ( 0.0000,  0.0000,  0.0000)
   9 H      1.434039    2.373229    3.201863    ( 0.0000,  0.0000,  0.0000)
  10 H      4.925961    3.986771    3.201863    ( 0.0000,  0.0000,  0.0000)
  11 H      4.925961    2.373229    3.201863    ( 0.0000,  0.0000,  0.0000)

Unit cell:
           periodic     x           y           z      points  spacing
  1. axis:    yes    6.360000    0.000000    0.000000    32     0.1988
  2. axis:    yes    0.000000    6.360000    0.000000    32     0.1988
  3. axis:    yes    0.000000    0.000000    6.360000    32     0.1988

  Lengths:   6.360000   6.360000   6.360000
  Angles:   90.000000  90.000000  90.000000

Effective grid spacing dv^(1/3) = 0.1988

     iter     time        total  log10-change:
                         energy   eigst   dens  force
iter:   1 05:15:26   -50.078016   -3.82
iter:   2 05:15:33   -50.076136   -5.25  -2.79
iter:   3 05:15:39   -50.072009   -4.77  -2.90
iter:   4 05:15:45   -50.073038   -5.98  -3.30
iter:   5 05:15:51   -50.072262   -5.09  -3.40
iter:   6 05:15:58   -50.072657   -6.41  -3.60
iter:   7 05:16:04   -50.072420   -6.11  -3.74
iter:   8 05:16:10   -50.072465   -6.67  -4.08c
iter:   9 05:16:16   -50.072443c  -7.26  -4.15c
iter:  10 05:16:22   -50.072445c  -7.00  -4.20c
iter:  11 05:16:29   -50.072446c  -8.57c -4.71c
iter:  12 05:16:37   -50.072449c  -8.22c -4.73c -2.66c

Converged after 12 iterations.

Dipole moment: (-0.000000, -0.000000, 9.935229) |e|*Ang

Energy contributions relative to reference atoms: (reference = -1151950.372298)

Kinetic:        +55.172736
Potential:      -58.062436
External:        +0.000000
XC:             -46.949882
Entropy (-ST):   -0.064376
Local:           -0.200680
SIC:             +0.000000
--------------------------
Free energy:    -50.104637
Extrapolated:   -50.072449

Showing only first 2 kpts
 Kpt  Band  Eigenvalues  Occupancy
  0    25      0.79843    1.99770
  0    26      0.98929    1.98457
  0    27      1.79996    0.07467
  0    28      4.93754    0.00000

  1    25      0.87594    1.99501
  1    26      0.94202    1.99036
  1    27      1.78540    0.08587
  1    28      5.30917    0.00000


Fermi level: 1.47498

No gap
No difference between direct/indirect transitions

Forces in eV/Ang:
  0 Pb    0.00000    0.00000    0.03669
  1 I     0.00000    0.00000   -0.16380
  2 I     0.00000    0.00000   -0.24169
  3 I    -0.00000   -0.00000   -0.00974
  4 C     0.00000    0.00000   -0.09862
  5 N    -0.07958    0.00000    0.07756
  6 N     0.07958   -0.00000    0.07756
  7 H    -0.00000   -0.00000    0.13154
  8 H    -0.07065   -0.08246    0.03222
  9 H    -0.07065    0.08246    0.03222
 10 H     0.07065   -0.08246    0.03222
 11 H     0.07065    0.08246    0.03222

System changes: positions 

Initializing position-dependent things.

Density initialized from wave functions
     .-------I-------.  
    /|               |  
   / |             I |  
  /  |               |  
 *   |     H         |  
 |   | H        H    |  
 |   |H N  C  NH     |  
 |   |               |  
 I   .---------------Pb 
 |  /               /   
 | /               /    
 |/               /     
 *---------------*      

Atomic positions and initial magnetic moments

Positions:
   0 Pb    -0.000000   -0.000000    0.015810    ( 0.0000,  0.0000,  0.0000)
   1 I      3.180000   -0.000000   -0.075780    ( 0.0000,  0.0000,  0.0000)
   2 I     -0.000000    3.180000   -0.137382    ( 0.0000,  0.0000,  0.0000)
   3 I      0.000000    0.000000    3.185637    ( 0.0000,  0.0000,  0.0000)
   4 C      3.180000    3.180000    3.556300    ( 0.0000,  0.0000,  0.0000)
   5 N      2.010294    3.180000    2.839796    ( 0.0000,  0.0000,  0.0000)
   6 N      4.349706    3.180000    2.839796    ( 0.0000,  0.0000,  0.0000)
   7 H      3.180000    3.180000    4.654104    ( 0.0000,  0.0000,  0.0000)
   8 H      1.431540    3.986340    3.204530    ( 0.0000,  0.0000,  0.0000)
   9 H      1.431540    2.373661    3.204530    ( 0.0000,  0.0000,  0.0000)
  10 H      4.928460    3.986339    3.204530    ( 0.0000,  0.0000,  0.0000)
  11 H      4.928460    2.373660    3.204530    ( 0.0000,  0.0000,  0.0000)

Unit cell:
           periodic     x           y           z      points  spacing
  1. axis:    yes    6.360000    0.000000    0.000000    32     0.1988
  2. axis:    yes    0.000000    6.360000    0.000000    32     0.1988
  3. axis:    yes    0.000000    0.000000    6.360000    32     0.1988

  Lengths:   6.360000   6.360000   6.360000
  Angles:   90.000000  90.000000  90.000000

Effective grid spacing dv^(1/3) = 0.1988

     iter     time        total  log10-change:
                         energy   eigst   dens  force
iter:   1 05:16:45   -50.084585   -3.61
iter:   2 05:16:52   -50.082318   -5.01  -2.71
iter:   3 05:16:58   -50.077443   -4.80  -2.82
iter:   4 05:17:04   -50.078560   -6.08  -3.25
iter:   5 05:17:10   -50.077667   -5.26  -3.28
iter:   6 05:17:17   -50.078097   -6.42  -3.59
iter:   7 05:17:23   -50.077741   -6.03  -3.66
iter:   8 05:17:29   -50.077848   -6.41  -3.95
iter:   9 05:17:35   -50.077809   -7.34  -4.07c
iter:  10 05:17:42   -50.077818c  -7.03  -4.16c
iter:  11 05:17:49   -50.077824c  -8.24c -4.64c
iter:  12 05:17:56   -50.077825c  -8.72c -4.73c -2.87c

Converged after 12 iterations.

Dipole moment: (-0.000000, 0.000000, 11.051884) |e|*Ang

Energy contributions relative to reference atoms: (reference = -1151950.372298)

Kinetic:        +55.396775
Potential:      -58.220817
External:        +0.000000
XC:             -47.021148
Entropy (-ST):   -0.063726
Local:           -0.200773
SIC:             +0.000000
--------------------------
Free energy:    -50.109688
Extrapolated:   -50.077825

Showing only first 2 kpts
 Kpt  Band  Eigenvalues  Occupancy
  0    25      0.79582    1.99768
  0    26      0.98367    1.98494
  0    27      1.79911    0.07299
  0    28      4.92427    0.00000

  1    25      0.87508    1.99489
  1    26      0.93663    1.99056
  1    27      1.78460    0.08391
  1    28      5.29859    0.00000


Fermi level: 1.47177

No gap
No difference between direct/indirect transitions

Forces in eV/Ang:
  0 Pb    0.00000    0.00000    0.03323
  1 I     0.00000   -0.00000   -0.16517
  2 I     0.00000   -0.00000   -0.22397
  3 I     0.00000    0.00000   -0.01019
  4 C    -0.00000    0.00000   -0.27619
  5 N    -0.12090    0.00000    0.03172
  6 N     0.12090    0.00000    0.03172
  7 H     0.00000   -0.00000    0.37048
  8 H    -0.04872   -0.08580    0.03562
  9 H    -0.04872    0.08580    0.03563
 10 H     0.04872   -0.08580    0.03562
 11 H     0.04872    0.08580    0.03562

System changes: positions 

Initializing position-dependent things.

Density initialized from wave functions
     .-------I-------.  
    /|               |  
   / |             I |  
  /  |               |  
 *   I     H         |  
 |   | H        H    |  
 |   |H N  C  NH     |  
 |   |               |  
 |   .---------------.  
 |  /               /   
 | /               /    
 |/               /     
 Pb--------------*      

Atomic positions and initial magnetic moments

Positions:
   0 Pb     0.000000    0.000000    0.021883    ( 0.0000,  0.0000,  0.0000)
   1 I      3.180000   -0.000000   -0.104362    ( 0.0000,  0.0000,  0.0000)
   2 I     -0.000000    3.180000   -0.182897    ( 0.0000,  0.0000,  0.0000)
   3 I      0.000000   -0.000000    3.184582    ( 0.0000,  0.0000,  0.0000)
   4 C      3.180000    3.180000    3.564962    ( 0.0000,  0.0000,  0.0000)
   5 N      2.010138    3.180000    2.848958    ( 0.0000,  0.0000,  0.0000)
   6 N      4.349862    3.180000    2.848958    ( 0.0000,  0.0000,  0.0000)
   7 H      3.180000    3.180000    4.652831    ( 0.0000,  0.0000,  0.0000)
   8 H      1.425922    3.984284    3.212446    ( 0.0000,  0.0000,  0.0000)
   9 H      1.425922    2.375716    3.212446    ( 0.0000,  0.0000,  0.0000)
  10 H      4.934078    3.984284    3.212446    ( 0.0000,  0.0000,  0.0000)
  11 H      4.934078    2.375716    3.212446    ( 0.0000,  0.0000,  0.0000)

Unit cell:
           periodic     x           y           z      points  spacing
  1. axis:    yes    6.360000    0.000000    0.000000    32     0.1988
  2. axis:    yes    0.000000    6.360000    0.000000    32     0.1988
  3. axis:    yes    0.000000    0.000000    6.360000    32     0.1988

  Lengths:   6.360000   6.360000   6.360000
  Angles:   90.000000  90.000000  90.000000

Effective grid spacing dv^(1/3) = 0.1988

     iter     time        total  log10-change:
                         energy   eigst   dens  force
iter:   1 05:18:05   -50.099981   -2.88
iter:   2 05:18:11   -50.097179   -4.27  -2.53
iter:   3 05:18:18   -50.090811   -4.50  -2.61
iter:   4 05:18:24   -50.092729   -5.50  -2.93
iter:   5 05:18:30   -50.091221   -4.76  -2.93
iter:   6 05:18:36   -50.091540   -5.95  -3.29
iter:   7 05:18:42   -50.091078   -5.65  -3.37
iter:   8 05:18:48   -50.091141   -6.23  -3.74
iter:   9 05:18:55   -50.091179   -6.67  -3.77
iter:  10 05:19:01   -50.091170c  -6.66  -3.91
iter:  11 05:19:08   -50.091175c  -8.13c -4.39c
iter:  12 05:19:16   -50.091180c  -8.09c -4.40c -2.22c

Converged after 12 iterations.

Dipole moment: (-0.000000, 0.000000, 14.143069) |e|*Ang

Energy contributions relative to reference atoms: (reference = -1151950.372298)

Kinetic:        +55.522647
Potential:      -58.314066
External:        +0.000000
XC:             -47.068566
Entropy (-ST):   -0.061217
Local:           -0.200587
SIC:             +0.000000
--------------------------
Free energy:    -50.121789
Extrapolated:   -50.091180

Showing only first 2 kpts
 Kpt  Band  Eigenvalues  Occupancy
  0    25      0.78909    1.99769
  0    26      0.96801    1.98626
  0    27      1.80087    0.06745
  0    28      4.88506    0.00000

  1    25      0.87009    1.99482
  1    26      0.92224    1.99128
  1    27      1.78654    0.07744
  1    28      5.26387    0.00000


Fermi level: 1.46535

No gap
No difference between direct/indirect transitions

Forces in eV/Ang:
  0 Pb   -0.00000   -0.00000    0.03011
  1 I     0.00000   -0.00000   -0.16470
  2 I     0.00000   -0.00000   -0.16728
  3 I    -0.00000   -0.00000   -0.01588
  4 C    -0.00000    0.00000   -0.55941
  5 N    -0.18451   -0.00000   -0.00826
  6 N     0.18451   -0.00000   -0.00826
  7 H     0.00000   -0.00000    0.69043
  8 H     0.00463   -0.09210    0.03497
  9 H     0.00463    0.09210    0.03497
 10 H    -0.00463   -0.09210    0.03497
 11 H    -0.00463    0.09210    0.03497

System changes: positions 

Initializing position-dependent things.

Density initialized from wave functions
     .-------I-------.  
    /|               |  
   / |               |  
  /  |               |  
 *   I     H         |  
 |   | H   C    H    |  
 |   |H N     NH     |  
 |   |               |  
 |   Pb--------------.  
 |  /               /   
 | /               /    
 |/               /     
 *---------------*      

Atomic positions and initial magnetic moments

Positions:
   0 Pb     0.000000   -0.000000    0.033728    ( 0.0000,  0.0000,  0.0000)
   1 I      3.180000   -0.000000   -0.160405    ( 0.0000,  0.0000,  0.0000)
   2 I      0.000000    3.180000   -0.271021    ( 0.0000,  0.0000,  0.0000)
   3 I      0.000000   -0.000000    3.182440    ( 0.0000,  0.0000,  0.0000)
   4 C      3.180000    3.180000    3.578188    ( 0.0000,  0.0000,  0.0000)
   5 N      2.008944    3.180000    2.863596    ( 0.0000,  0.0000,  0.0000)
   6 N      4.351056    3.180000    2.863596    ( 0.0000,  0.0000,  0.0000)
   7 H      3.180000    3.180000    4.661445    ( 0.0000,  0.0000,  0.0000)
   8 H      1.419066    3.980541    3.227576    ( 0.0000,  0.0000,  0.0000)
   9 H      1.419066    2.379459    3.227576    ( 0.0000,  0.0000,  0.0000)
  10 H      4.940934    3.980541    3.227576    ( 0.0000,  0.0000,  0.0000)
  11 H      4.940934    2.379459    3.227576    ( 0.0000,  0.0000,  0.0000)

Unit cell:
           periodic     x           y           z      points  spacing
  1. axis:    yes    6.360000    0.000000    0.000000    32     0.1988
  2. axis:    yes    0.000000    6.360000    0.000000    32     0.1988
  3. axis:    yes    0.000000    0.000000    6.360000    32     0.1988

  Lengths:   6.360000   6.360000   6.360000
  Angles:   90.000000  90.000000  90.000000

Effective grid spacing dv^(1/3) = 0.1988

     iter     time        total  log10-change:
                         energy   eigst   dens  force
iter:   1 05:19:24   -50.123019   -2.40
iter:   2 05:19:30   -50.120495   -3.76  -2.42
iter:   3 05:19:37   -50.113916   -4.38  -2.47
iter:   4 05:19:43   -50.115336   -5.18  -2.71
iter:   5 05:19:49   -50.113995   -4.54  -2.77
iter:   6 05:19:55   -50.113698   -5.44  -3.11
iter:   7 05:20:02   -50.113558   -5.48  -3.25
iter:   8 05:20:08   -50.113627   -6.03  -3.57
iter:   9 05:20:14   -50.113719   -6.14  -3.60
iter:  10 05:20:20   -50.113686   -7.50c -4.12c
iter:  11 05:20:28   -50.113674c  -8.30c -4.17c
iter:  12 05:20:35   -50.113661c  -7.75c -4.21c -1.78c

Converged after 12 iterations.

Dipole moment: (-0.000000, 0.000002, 18.723586) |e|*Ang

Energy contributions relative to reference atoms: (reference = -1151950.372298)

Kinetic:        +55.499916
Potential:      -58.305167
External:        +0.000000
XC:             -47.083440
Entropy (-ST):   -0.056333
Local:           -0.196803
SIC:             +0.000000
--------------------------
Free energy:    -50.141827
Extrapolated:   -50.113661

Showing only first 2 kpts
 Kpt  Band  Eigenvalues  Occupancy
  0    25      0.78475    1.99754
  0    26      0.94264    1.98811
  0    27      1.80735    0.05704
  0    28      4.80508    0.00000

  1    25      0.86362    1.99459
  1    26      0.90180    1.99208
  1    27      1.79342    0.06529
  1    28      5.18210    0.00000


Fermi level: 1.45454

No gap
No difference between direct/indirect transitions

Forces in eV/Ang:
  0 Pb    0.00000   -0.00000    0.01328
  1 I    -0.00000   -0.00000   -0.16640
  2 I     0.00000    0.00000   -0.05789
  3 I     0.00000    0.00000   -0.01991
  4 C    -0.00000    0.00000   -0.69203
  5 N    -0.20015    0.00000   -0.05921
  6 N     0.20015   -0.00000   -0.05921
  7 H     0.00000   -0.00000    0.84174
  8 H     0.05697   -0.07666    0.04283
  9 H     0.05697    0.07666    0.04283
 10 H    -0.05697   -0.07666    0.04283
 11 H    -0.05697    0.07666    0.04283

System changes: positions 

Initializing position-dependent things.

Density initialized from wave functions
     .-------I-------.  
    /|               |  
   / |               |  
  /  |               |  
 *   I     H         |  
 |   | H   C    H    |  
 |   |H N     NH     |  
 |   |               |  
 |   Pb--------------.  
 |  /               /   
 | /               /    
 |/               /     
 *---------------*      

Atomic positions and initial magnetic moments

Positions:
   0 Pb     0.000000   -0.000000    0.049543    ( 0.0000,  0.0000,  0.0000)
   1 I      3.180000   -0.000000   -0.237629    ( 0.0000,  0.0000,  0.0000)
   2 I      0.000000    3.180000   -0.389398    ( 0.0000,  0.0000,  0.0000)
   3 I      0.000000   -0.000000    3.179465    ( 0.0000,  0.0000,  0.0000)
   4 C      3.180000    3.180000    3.593622    ( 0.0000,  0.0000,  0.0000)
   5 N      2.007736    3.180000    2.879199    ( 0.0000,  0.0000,  0.0000)
   6 N      4.352264    3.180000    2.879199    ( 0.0000,  0.0000,  0.0000)
   7 H      3.180000    3.180000    4.684488    ( 0.0000,  0.0000,  0.0000)
   8 H      1.415155    3.975761    3.248267    ( 0.0000,  0.0000,  0.0000)
   9 H      1.415155    2.384239    3.248267    ( 0.0000,  0.0000,  0.0000)
  10 H      4.944845    3.975761    3.248267    ( 0.0000,  0.0000,  0.0000)
  11 H      4.944845    2.384239    3.248267    ( 0.0000,  0.0000,  0.0000)

Unit cell:
           periodic     x           y           z      points  spacing
  1. axis:    yes    6.360000    0.000000    0.000000    32     0.1988
  2. axis:    yes    0.000000    6.360000    0.000000    32     0.1988
  3. axis:    yes    0.000000    0.000000    6.360000    32     0.1988

  Lengths:   6.360000   6.360000   6.360000
  Angles:   90.000000  90.000000  90.000000

Effective grid spacing dv^(1/3) = 0.1988

     iter     time        total  log10-change:
                         energy   eigst   dens  force
iter:   1 05:20:44   -50.142667   -2.18
iter:   2 05:20:50   -50.141850   -3.48  -2.40
iter:   3 05:20:56   -50.136273   -3.82  -2.43
iter:   4 05:21:02   -50.136481   -4.74  -2.79
iter:   5 05:21:09   -50.137292   -5.11  -2.84
iter:   6 05:21:15   -50.137269   -5.18  -3.03
iter:   7 05:21:21   -50.136889   -5.47  -3.14
iter:   8 05:21:27   -50.136859   -6.18  -3.44
iter:   9 05:21:33   -50.137033   -6.51  -3.49
iter:  10 05:21:40   -50.137024   -6.10  -3.63
iter:  11 05:21:46   -50.136969   -7.49c -4.03c
iter:  12 05:21:52   -50.136981   -7.82c -4.12c
iter:  13 05:21:59   -50.136982c  -7.42c -4.17c
iter:  14 05:22:07   -50.136982c  -8.33c -4.67c -2.35c

Converged after 14 iterations.

Dipole moment: (-0.000001, 0.000003, 21.704828) |e|*Ang

Energy contributions relative to reference atoms: (reference = -1151950.372298)

Kinetic:        +55.256443
Potential:      -58.147490
External:        +0.000000
XC:             -47.029205
Entropy (-ST):   -0.048459
Local:           -0.192500
SIC:             +0.000000
--------------------------
Free energy:    -50.161212
Extrapolated:   -50.136982

Showing only first 2 kpts
 Kpt  Band  Eigenvalues  Occupancy
  0    25      0.79098    1.99707
  0    26      0.91540    1.98986
  0    27      1.82509    0.04303
  0    28      4.69698    0.00000

  1    25      0.85207    1.99461
  1    26      0.89103    1.99205
  1    27      1.81176    0.04902
  1    28      5.05355    0.00000


Fermi level: 1.44337

Gap: 0.227 eV
Transition (v -> c):
  (s=0, k=63, n=26, [0.50, 0.50, 0.50]) -> (s=0, k=31, n=27, [0.00, 0.50, 0.50])
Direct/indirect transitions are different
Direct gap: 0.528 eV
Transition at: (s=0, k=61, n=26, [0.50, 0.50, 0.00])

Forces in eV/Ang:
  0 Pb    0.00000   -0.00000   -0.02285
  1 I     0.00000   -0.00000   -0.16909
  2 I    -0.00000   -0.00000    0.10577
  3 I    -0.00000   -0.00000   -0.01867
  4 C    -0.00000    0.00000   -0.49632
  5 N    -0.14013   -0.00000   -0.08666
  6 N     0.14013   -0.00000   -0.08666
  7 H     0.00000   -0.00000    0.57486
  8 H     0.07701   -0.04001    0.04932
  9 H     0.07701    0.04001    0.04932
 10 H    -0.07701   -0.04001    0.04932
 11 H    -0.07701    0.04001    0.04932

System changes: positions 

Initializing position-dependent things.

Density initialized from wave functions
     .-------I-------.  
    /|               |  
   / |               |  
  /I |               |  
 *   I     H         |  
 |   | H   C    H    |  
 |   |H N     NH     |  
 |   |               |  
 |   Pb--------------.  
 |  /               /   
 | /               /    
 |/               /     
 *---------------*      

Atomic positions and initial magnetic moments

Positions:
   0 Pb     0.000000   -0.000000    0.052483    ( 0.0000,  0.0000,  0.0000)
   1 I      3.180000   -0.000000   -0.256727    ( 0.0000,  0.0000,  0.0000)
   2 I      0.000000    3.180000   -0.413177    ( 0.0000,  0.0000,  0.0000)
   3 I      0.000000   -0.000000    3.178659    ( 0.0000,  0.0000,  0.0000)
   4 C      3.180000    3.180000    3.594970    ( 0.0000,  0.0000,  0.0000)
   5 N      2.007454    3.180000    2.879195    ( 0.0000,  0.0000,  0.0000)
   6 N      4.352546    3.180000    2.879195    ( 0.0000,  0.0000,  0.0000)
   7 H      3.180000    3.180000    4.697678    ( 0.0000,  0.0000,  0.0000)
   8 H      1.417761    3.974424    3.253231    ( 0.0000,  0.0000,  0.0000)
   9 H      1.417761    2.385576    3.253231    ( 0.0000,  0.0000,  0.0000)
  10 H      4.942239    3.974424    3.253231    ( 0.0000,  0.0000,  0.0000)
  11 H      4.942239    2.385576    3.253231    ( 0.0000,  0.0000,  0.0000)

Unit cell:
           periodic     x           y           z      points  spacing
  1. axis:    yes    6.360000    0.000000    0.000000    32     0.1988
  2. axis:    yes    0.000000    6.360000    0.000000    32     0.1988
  3. axis:    yes    0.000000    0.000000    6.360000    32     0.1988

  Lengths:   6.360000   6.360000   6.360000
  Angles:   90.000000  90.000000  90.000000

Effective grid spacing dv^(1/3) = 0.1988

     iter     time        total  log10-change:
                         energy   eigst   dens  force
iter:   1 05:22:15   -50.142037   -3.37
iter:   2 05:22:22   -50.142666   -4.76  -2.70
iter:   3 05:22:28   -50.145266   -4.63  -2.81
iter:   4 05:22:34   -50.144945   -5.66  -3.12
iter:   5 05:22:41   -50.144488   -4.92  -3.21
iter:   6 05:22:47   -50.144975   -6.15  -3.47
iter:   7 05:22:53   -50.144753   -5.50  -3.57
iter:   8 05:22:59   -50.144675   -6.95  -3.95
iter:   9 05:23:06   -50.144712   -6.76  -4.03c
iter:  10 05:23:12   -50.144706c  -6.96  -4.11c
iter:  11 05:23:19   -50.144711c  -8.39c -4.50c
iter:  12 05:23:27   -50.144712c  -7.69c -4.56c -2.30c

Converged after 12 iterations.

Dipole moment: (-0.000001, 0.000004, 21.977211) |e|*Ang

Energy contributions relative to reference atoms: (reference = -1151950.372298)

Kinetic:        +54.965771
Potential:      -57.952516
External:        +0.000000
XC:             -46.943260
Entropy (-ST):   -0.046183
Local:           -0.191615
SIC:             +0.000000
--------------------------
Free energy:    -50.167803
Extrapolated:   -50.144712

Showing only first 2 kpts
 Kpt  Band  Eigenvalues  Occupancy
  0    25      0.79355    1.99702
  0    26      0.91027    1.99046
  0    27      1.83347    0.04000
  0    28      4.67719    0.00000

  1    25      0.84850    1.99484
  1    26      0.88953    1.99224
  1    27      1.82038    0.04547
  1    28      5.02791    0.00000


Fermi level: 1.44429

Gap: 0.268 eV
Transition (v -> c):
  (s=0, k=63, n=26, [0.50, 0.50, 0.50]) -> (s=0, k=31, n=27, [0.00, 0.50, 0.50])
[...]

Positions:
   0 Pb    -0.000000   -0.000000   -0.198783    ( 0.0000,  0.0000,  0.0000)
   1 I      3.180000   -0.000008   -0.999170    ( 0.0000,  0.0000,  0.0000)
   2 I      0.000000    3.179997   -0.208289    ( 0.0000,  0.0000,  0.0000)
   3 I      0.000000   -0.000007    2.935813    ( 0.0000,  0.0000,  0.0000)
   4 C      3.180000    3.179995    3.727687    ( 0.0000,  0.0000,  0.0000)
   5 N      2.004125    3.179991    3.004509    ( 0.0000,  0.0000,  0.0000)
   6 N      4.355875    3.180011    3.004509    ( 0.0000,  0.0000,  0.0000)
   7 H      3.180000    3.179959    4.833942    ( 0.0000,  0.0000,  0.0000)
   8 H      1.423042    3.979208    3.368521    ( 0.0000,  0.0000,  0.0000)
   9 H      1.423023    2.380829    3.368602    ( 0.0000,  0.0000,  0.0000)
  10 H      4.936969    3.979203    3.368551    ( 0.0000,  0.0000,  0.0000)
  11 H      4.936966    2.380824    3.368572    ( 0.0000,  0.0000,  0.0000)

Unit cell:
           periodic     x           y           z      points  spacing
  1. axis:    yes    6.360000    0.000000    0.000000    32     0.1988
  2. axis:    yes    0.000000    6.360000    0.000000    32     0.1988
  3. axis:    yes    0.000000    0.000000    6.360000    32     0.1988

  Lengths:   6.360000   6.360000   6.360000
  Angles:   90.000000  90.000000  90.000000

Effective grid spacing dv^(1/3) = 0.1988

     iter     time        total  log10-change:
                         energy   eigst   dens  force
iter:   1 05:53:16   -50.279464   -3.03
iter:   2 05:53:22   -50.278924   -4.37  -2.77
iter:   3 05:53:28   -50.277236   -4.96  -2.81
iter:   4 05:53:35   -50.277319   -6.05  -3.06
iter:   5 05:53:41   -50.277018   -5.18  -3.12
iter:   6 05:53:47   -50.276944   -6.30  -3.55
iter:   7 05:53:53   -50.277034   -6.00  -3.58
iter:   8 05:53:59   -50.276984   -6.49  -3.73
iter:   9 05:54:06   -50.276971   -7.05  -4.12c
iter:  10 05:54:12   -50.276977c  -7.22  -4.18c
iter:  11 05:54:19   -50.276970c  -8.21c -4.57c
iter:  12 05:54:27   -50.276970c  -9.18c -4.68c -2.87c

Converged after 12 iterations.

Dipole moment: (0.000001, 0.000877, 23.036827) |e|*Ang

Energy contributions relative to reference atoms: (reference = -1151950.372298)

Kinetic:        +54.231442
Potential:      -57.324431
External:        +0.000000
XC:             -46.969993
Entropy (-ST):   -0.017957
Local:           -0.205009
SIC:             +0.000000
--------------------------
Free energy:    -50.285948
Extrapolated:   -50.276970

Showing only first 2 kpts
 Kpt  Band  Eigenvalues  Occupancy
  0    25      0.70590    1.99923
  0    26      0.80937    1.99785
  0    27      2.04342    0.00807
  0    28      4.41637    0.00000

  1    25      0.70046    1.99927
  1    26      0.86755    1.99615
  1    27      2.03814    0.00851
  1    28      4.67372    0.00000


Fermi level: 1.49258

Gap: 0.453 eV
Transition (v -> c):
  (s=0, k=63, n=26, [0.50, 0.50, 0.50]) -> (s=0, k=31, n=27, [0.00, 0.50, 0.50])
Direct/indirect transitions are different
Direct gap: 0.536 eV
Transition at: (s=0, k=31, n=26, [0.00, 0.50, 0.50])

Forces in eV/Ang:
  0 Pb   -0.00000   -0.00000   -0.02356
  1 I     0.00000   -0.00004   -0.00651
  2 I    -0.00000   -0.00001   -0.00928
  3 I    -0.00000   -0.00003    0.01534
  4 C    -0.00000   -0.00003    0.00731
  5 N    -0.00642   -0.00003    0.00043
  6 N     0.00642    0.00004    0.00043
  7 H     0.00000   -0.00016   -0.01660
  8 H     0.00141   -0.00275   -0.00536
  9 H     0.00135    0.00290   -0.00502
 10 H    -0.00138   -0.00277   -0.00523
 11 H    -0.00138    0.00288   -0.00515

System changes: positions 

Initializing position-dependent things.

Density initialized from wave functions
     .---------------Pb 
    /|       I       |  
   I |               |  
  /  |               |  
 *   I     H         |  
 |   | H   C    H    |  
 |   |H N     NH     |  
 |   |               |  
 |   .---------------.  
 |  /               /   
 | /               /    
 |/               /     
 *---------------*      

Atomic positions and initial magnetic moments

Positions:
   0 Pb    -0.000000   -0.000000   -0.199108    ( 0.0000,  0.0000,  0.0000)
   1 I      3.180000   -0.000009   -1.001779    ( 0.0000,  0.0000,  0.0000)
   2 I      0.000000    3.179997   -0.209467    ( 0.0000,  0.0000,  0.0000)
   3 I      0.000000   -0.000008    2.936423    ( 0.0000,  0.0000,  0.0000)
   4 C      3.180000    3.179994    3.727824    ( 0.0000,  0.0000,  0.0000)
   5 N      2.003986    3.179991    3.004773    ( 0.0000,  0.0000,  0.0000)
   6 N      4.356014    3.180012    3.004773    ( 0.0000,  0.0000,  0.0000)
   7 H      3.180000    3.179956    4.833741    ( 0.0000,  0.0000,  0.0000)
   8 H      1.423006    3.979165    3.368744    ( 0.0000,  0.0000,  0.0000)
   9 H      1.422985    2.380875    3.368833    ( 0.0000,  0.0000,  0.0000)
  10 H      4.937006    3.979160    3.368777    ( 0.0000,  0.0000,  0.0000)
  11 H      4.937003    2.380870    3.368800    ( 0.0000,  0.0000,  0.0000)

Unit cell:
           periodic     x           y           z      points  spacing
  1. axis:    yes    6.360000    0.000000    0.000000    32     0.1988
  2. axis:    yes    0.000000    6.360000    0.000000    32     0.1988
  3. axis:    yes    0.000000    0.000000    6.360000    32     0.1988

  Lengths:   6.360000   6.360000   6.360000
  Angles:   90.000000  90.000000  90.000000

Effective grid spacing dv^(1/3) = 0.1988

     iter     time        total  log10-change:
                         energy   eigst   dens  force
iter:   1 05:54:35   -50.277139   -5.76
iter:   2 05:54:41   -50.277116   -7.07  -3.90
iter:   3 05:54:48   -50.277036   -7.01  -3.96
iter:   4 05:54:54   -50.277055   -8.27c -4.31c
iter:   5 05:55:01   -50.277052c  -7.58c -4.36c
iter:   6 05:55:09   -50.277046c  -8.47c -4.72c -3.00c

Converged after 6 iterations.

Dipole moment: (0.000003, 0.000962, 23.057157) |e|*Ang

Energy contributions relative to reference atoms: (reference = -1151950.372298)

Kinetic:        +54.265443
Potential:      -57.351229
External:        +0.000000
XC:             -46.977498
Entropy (-ST):   -0.017877
Local:           -0.204824
SIC:             +0.000000
--------------------------
Free energy:    -50.285985
Extrapolated:   -50.277046

Showing only first 2 kpts
 Kpt  Band  Eigenvalues  Occupancy
  0    25      0.70576    1.99923
  0    26      0.80939    1.99784
  0    27      2.04419    0.00800
  0    28      4.41443    0.00000

  1    25      0.70081    1.99927
  1    26      0.86780    1.99613
  1    27      2.03892    0.00843
  1    28      4.67092    0.00000


Fermi level: 1.49241

Gap: 0.456 eV
Transition (v -> c):
  (s=0, k=63, n=26, [0.50, 0.50, 0.50]) -> (s=0, k=31, n=27, [0.00, 0.50, 0.50])
Direct/indirect transitions are different
Direct gap: 0.537 eV
Transition at: (s=0, k=31, n=26, [0.00, 0.50, 0.50])

Forces in eV/Ang:
  0 Pb   -0.00000   -0.00000   -0.02541
  1 I     0.00000   -0.00004   -0.00387
  2 I    -0.00000   -0.00001   -0.00192
  3 I    -0.00000   -0.00003    0.01225
  4 C     0.00000   -0.00003   -0.00274
  5 N     0.00270   -0.00003   -0.00107
  6 N    -0.00270    0.00004   -0.00106
  7 H    -0.00000   -0.00018   -0.00685
  8 H     0.00011   -0.00099   -0.00385
  9 H     0.00004    0.00116   -0.00347
 10 H    -0.00007   -0.00102   -0.00371
 11 H    -0.00007    0.00114   -0.00362

System changes: positions 

Initializing position-dependent things.

Density initialized from wave functions
     .---------------Pb 
    /|       I       |  
   I |               |  
  /  |               |  
 *   I     H         |  
 |   | H   C    H    |  
 |   |H N     NH     |  
 |   |               |  
 |   .---------------.  
 |  /               /   
 | /               /    
 |/               /     
 *---------------*      

Atomic positions and initial magnetic moments

Positions:
   0 Pb    -0.000000   -0.000000   -0.207368    ( 0.0000,  0.0000,  0.0000)
   1 I      3.180000   -0.000014   -1.017773    ( 0.0000,  0.0000,  0.0000)
   2 I      0.000000    3.179995   -0.209198    ( 0.0000,  0.0000,  0.0000)
   3 I      0.000000   -0.000011    2.933560    ( 0.0000,  0.0000,  0.0000)
   4 C      3.180000    3.179991    3.730513    ( 0.0000,  0.0000,  0.0000)
   5 N      2.003743    3.179987    3.007333    ( 0.0000,  0.0000,  0.0000)
   6 N      4.356257    3.180017    3.007333    ( 0.0000,  0.0000,  0.0000)
   7 H      3.180000    3.179935    4.835499    ( 0.0000,  0.0000,  0.0000)
   8 H      1.422851    3.978953    3.371052    ( 0.0000,  0.0000,  0.0000)
   9 H      1.422823    2.381106    3.371183    ( 0.0000,  0.0000,  0.0000)
  10 H      4.937165    3.978945    3.371101    ( 0.0000,  0.0000,  0.0000)
  11 H      4.937162    2.381098    3.371134    ( 0.0000,  0.0000,  0.0000)

Unit cell:
           periodic     x           y           z      points  spacing
  1. axis:    yes    6.360000    0.000000    0.000000    32     0.1988
  2. axis:    yes    0.000000    6.360000    0.000000    32     0.1988
  3. axis:    yes    0.000000    0.000000    6.360000    32     0.1988

  Lengths:   6.360000   6.360000   6.360000
  Angles:   90.000000  90.000000  90.000000

Effective grid spacing dv^(1/3) = 0.1988

     iter     time        total  log10-change:
                         energy   eigst   dens  force
iter:   1 05:55:18   -50.277722   -3.82
iter:   2 05:55:24   -50.277629   -5.14  -3.23
iter:   3 05:55:30   -50.277298   -5.76  -3.27
iter:   4 05:55:36   -50.277313   -6.64  -3.51
iter:   5 05:55:43   -50.277312c  -6.16  -3.59
iter:   6 05:55:49   -50.277279c  -7.12  -3.93
iter:   7 05:55:55   -50.277293c  -6.99  -3.98
iter:   8 05:56:02   -50.277289c  -8.03c -4.31c
iter:   9 05:56:10   -50.277290c  -7.73c -4.45c -1.86c

Converged after 9 iterations.

Dipole moment: (0.000008, 0.001438, 23.135363) |e|*Ang

Energy contributions relative to reference atoms: (reference = -1151950.372298)

Kinetic:        +54.303155
Potential:      -57.371521
External:        +0.000000
XC:             -46.995636
Entropy (-ST):   -0.017523
Local:           -0.204527
SIC:             +0.000000
--------------------------
Free energy:    -50.286052
Extrapolated:   -50.277290

Showing only first 2 kpts
 Kpt  Band  Eigenvalues  Occupancy
  0    25      0.70518    1.99924
  0    26      0.80850    1.99786
  0    27      2.04872    0.00763
  0    28      4.40655    0.00000

  1    25      0.70186    1.99926
  1    26      0.86803    1.99612
  1    27      2.04357    0.00803
  1    28      4.65988    0.00000


Fermi level: 1.49225

Gap: 0.462 eV
Transition (v -> c):
  (s=0, k=63, n=26, [0.50, 0.50, 0.50]) -> (s=0, k=31, n=27, [0.00, 0.50, 0.50])
Direct/indirect transitions are different
Direct gap: 0.539 eV
Transition at: (s=0, k=31, n=26, [0.00, 0.50, 0.50])

Forces in eV/Ang:
  0 Pb   -0.00000   -0.00000   -0.01531
  1 I     0.00000   -0.00006    0.00744
  2 I    -0.00000   -0.00002    0.00059
  3 I     0.00000   -0.00005    0.00085
  4 C     0.00000    0.00002   -0.03537
  5 N     0.01259   -0.00012   -0.01333
  6 N    -0.01259    0.00005   -0.01333
  7 H     0.00000   -0.00027    0.02009
  8 H    -0.00236    0.00641   -0.00376
  9 H    -0.00247   -0.00615   -0.00323
 10 H     0.00242    0.00637   -0.00357
 11 H     0.00241   -0.00619   -0.00343

System changes: positions 

Initializing position-dependent things.

Density initialized from wave functions
     .---------------Pb 
    /|       I       |  
   I |               |  
  /  |               |  
 *   I     H         |  
 |   | H   C    H    |  
 |   |H N     NH     |  
 |   |               |  
 |   .---------------.  
 |  /               /   
 | /               /    
 |/               /     
 *---------------*      

Atomic positions and initial magnetic moments

Positions:
   0 Pb    -0.000000   -0.000000   -0.205224    ( 0.0000,  0.0000,  0.0000)
   1 I      3.180000   -0.000015   -1.008886    ( 0.0000,  0.0000,  0.0000)
   2 I      0.000000    3.179995   -0.210036    ( 0.0000,  0.0000,  0.0000)
   3 I      0.000000   -0.000012    2.936918    ( 0.0000,  0.0000,  0.0000)
   4 C      3.180000    3.179991    3.728208    ( 0.0000,  0.0000,  0.0000)
   5 N      2.003782    3.179986    3.005229    ( 0.0000,  0.0000,  0.0000)
   6 N      4.356218    3.180018    3.005229    ( 0.0000,  0.0000,  0.0000)
   7 H      3.180000    3.179931    4.833876    ( 0.0000,  0.0000,  0.0000)
   8 H      1.422944    3.979016    3.369537    ( 0.0000,  0.0000,  0.0000)
   9 H      1.422914    2.381047    3.369677    ( 0.0000,  0.0000,  0.0000)
  10 H      4.937073    3.979008    3.369589    ( 0.0000,  0.0000,  0.0000)
  11 H      4.937070    2.381039    3.369625    ( 0.0000,  0.0000,  0.0000)

Unit cell:
           periodic     x           y           z      points  spacing
  1. axis:    yes    6.360000    0.000000    0.000000    32     0.1988
  2. axis:    yes    0.000000    6.360000    0.000000    32     0.1988
  3. axis:    yes    0.000000    0.000000    6.360000    32     0.1988

  Lengths:   6.360000   6.360000   6.360000
  Angles:   90.000000  90.000000  90.000000

Effective grid spacing dv^(1/3) = 0.1988

     iter     time        total  log10-change:
                         energy   eigst   dens  force
iter:   1 05:56:18   -50.277054   -4.34
iter:   2 05:56:25   -50.277105   -5.70  -3.40
iter:   3 05:56:31   -50.277277   -6.29  -3.45
iter:   4 05:56:37   -50.277264   -7.21  -3.68
iter:   5 05:56:43   -50.277273c  -6.42  -3.76
iter:   6 05:56:51   -50.277290c  -7.54c -4.21c
iter:   7 05:56:57   -50.277280c  -7.24  -4.23c
iter:   8 05:57:05   -50.277283c  -7.73c -4.37c -2.05c

Converged after 8 iterations.

Dipole moment: (0.000009, 0.001537, 23.192266) |e|*Ang

Energy contributions relative to reference atoms: (reference = -1151950.372298)

Kinetic:        +54.250536
Potential:      -57.336114
External:        +0.000000
XC:             -46.982026
Entropy (-ST):   -0.017664
Local:           -0.200846
SIC:             +0.000000
--------------------------
Free energy:    -50.286115
Extrapolated:   -50.277283

Showing only first 2 kpts
 Kpt  Band  Eigenvalues  Occupancy
  0    25      0.70544    1.99924
  0    26      0.80907    1.99785
  0    27      2.04663    0.00781
  0    28      4.41226    0.00000

  1    25      0.70149    1.99927
  1    26      0.86759    1.99614
  1    27      2.04141    0.00822
  1    28      4.66792    0.00000


Fermi level: 1.49242

Gap: 0.460 eV
Transition (v -> c):
  (s=0, k=63, n=26, [0.50, 0.50, 0.50]) -> (s=0, k=31, n=27, [0.00, 0.50, 0.50])
Direct/indirect transitions are different
Direct gap: 0.538 eV
Transition at: (s=0, k=31, n=26, [0.00, 0.50, 0.50])

Forces in eV/Ang:
  0 Pb   -0.00000    0.00000   -0.01530
  1 I     0.00000   -0.00005   -0.00036
  2 I     0.00000   -0.00002   -0.00007
  3 I     0.00000   -0.00005    0.00052
  4 C     0.00000   -0.00002   -0.01310
  5 N     0.00751   -0.00007    0.00550
  6 N    -0.00751    0.00006    0.00550
  7 H     0.00000   -0.00029    0.00021
  8 H    -0.00034    0.00181   -0.00529
  9 H    -0.00047   -0.00156   -0.00472
 10 H     0.00041    0.00177   -0.00508
 11 H     0.00041   -0.00159   -0.00493

Writing to /home/luis-ochoa/Documents/Vscode/py/dft/calculations/top8_pbe/FAPbI3/01_relax/relax.gpw (mode='')

Timing:                                      incl.     excl.
-------------------------------------------------------------------
Density initialized from wave functions:    22.440    22.439   0.6% |
 Symmetrize density:                         0.001     0.001   0.0% |
Forces:                                     58.843    58.843   1.4% ||
Hamiltonian:                                12.335     0.071   0.0% |
 Atomic:                                     4.386     1.806   0.0% |
  XC Correction:                             2.580     2.580   0.1% |
 Calculate atomic Hamiltonians:              2.961     2.961   0.1% |
 Communicate:                                0.002     0.002   0.0% |
 Initialize Hamiltonian:                     0.000     0.000   0.0% |
 Poisson:                                    0.075     0.075   0.0% |
 XC 3D grid:                                 4.839     4.839   0.1% |
LCAO initialization:                         4.622     0.331   0.0% |
 LCAO eigensolver:                           0.223     0.001   0.0% |
  Calculate projections:                     0.004     0.004   0.0% |
  DenseAtomicCorrection:                     0.009     0.009   0.0% |
  Distribute overlap matrix:                 0.000     0.000   0.0% |
  Orbital Layouts:                           0.007     0.007   0.0% |
  Potential matrix:                          0.197     0.197   0.0% |
  Sum over cells:                            0.005     0.005   0.0% |
 LCAO to grid:                               3.576     3.576   0.1% |
 Set positions (LCAO WFS):                   0.493     0.078   0.0% |
  Basic WFS set positions:                   0.001     0.001   0.0% |
  Basis functions set positions:             0.000     0.000   0.0% |
  P tci:                                     0.211     0.211   0.0% |
  ST tci:                                    0.183     0.183   0.0% |
  mktci:                                     0.019     0.019   0.0% |
PWDescriptor:                                0.014     0.014   0.0% |
Redistribute:                                0.137     0.137   0.0% |
SCF-cycle:                                3762.403   331.544   8.1% |--|
 Davidson:                                2887.140   571.589  14.1% |-----|
  Apply H:                                 404.293   395.167   9.7% |---|
   HMM T:                                    9.125     9.125   0.2% |
  Subspace diag:                           565.459     0.660   0.0% |
   calc_h_matrix:                          473.123    70.582   1.7% ||
    Apply H:                               402.541   393.365   9.7% |---|
     HMM T:                                  9.176     9.176   0.2% |
   diagonalize:                              3.213     3.213   0.1% |
   rotate_psi:                              88.463    88.463   2.2% ||
  calc. matrices:                         1144.987   345.656   8.5% |--|
   Apply H:                                799.331   781.822  19.2% |-------|
    HMM T:                                  17.509    17.509   0.4% |
  diagonalize:                              28.229    28.229   0.7% |
  rotate_psi:                              172.584   172.584   4.2% |-|
 Density:                                  260.776     0.013   0.0% |
  Atomic density matrices:                   2.711     2.711   0.1% |
  Mix:                                      45.089    45.089   1.1% |
  Multipole moments:                         0.181     0.181   0.0% |
  Pseudo density:                          212.783   212.774   5.2% |-|
   Symmetrize density:                       0.008     0.008   0.0% |
 Forces:                                   118.481   118.481   2.9% ||
 Hamiltonian:                              148.625     0.827   0.0% |
  Atomic:                                   52.847    21.814   0.5% |
   XC Correction:                           31.033    31.033   0.8% |
  Calculate atomic Hamiltonians:            35.588    35.588   0.9% |
  Communicate:                               0.020     0.020   0.0% |
  Poisson:                                   0.901     0.901   0.0% |
  XC 3D grid:                               58.443    58.443   1.4% ||
 Orthonormalize:                            15.836     0.058   0.0% |
  calc_s_matrix:                             2.851     2.851   0.1% |
  inverse-cholesky:                          0.086     0.086   0.0% |
  projections:                               9.203     9.203   0.2% |
  rotate_psi_s:                              3.638     3.638   0.1% |
Set symmetry:                                0.000     0.000   0.0% |
Other:                                     207.388   207.388   5.1% |-|
-------------------------------------------------------------------
Total:                                              4068.183 100.0%

Memory usage: 555.74 MiB
Date: Sat May  9 06:00:14 2026
