
  ___ ___ ___ _ _ _  
 |   |   |_  | | | | 
 | | | | | . | | | | 
 |__ |  _|___|_____|  25.7.0
 |___|_|             

User:   luis-ochoa@luis-ochoa-To-be-filled-by-O-E
Date:   Thu Apr 23 02:56:47 2026
Arch:   x86_64
Pid:    16447
CWD:    /home/luis-ochoa/Documents/Vscode/py/dft-cspbi3-gpaw-main
Python: 3.12.3
gpaw:   /home/luis-ochoa/Documents/Vscode/py/dft-cspbi3-gpaw-main/.venv/lib/python3.12/site-packages/gpaw
_gpaw:  /home/luis-ochoa/Documents/Vscode/py/dft-cspbi3-gpaw-main/.venv/lib/python3.12/site-packages/
        _gpaw.cpython-312-x86_64-linux-gnu.so
ase:    /home/luis-ochoa/Documents/Vscode/py/dft-cspbi3-gpaw-main/.venv/lib/python3.12/site-packages/ase (version 3.28.0)
numpy:  /home/luis-ochoa/Documents/Vscode/py/dft-cspbi3-gpaw-main/.venv/lib/python3.12/site-packages/numpy (version 2.4.4)
scipy:  /home/luis-ochoa/Documents/Vscode/py/dft-cspbi3-gpaw-main/.venv/lib/python3.12/site-packages/scipy (version 1.17.1)
libxc:  5.2.3
units:  Angstrom and eV
cores: 1
OpenMP: False
OMP_NUM_THREADS: 1

Input parameters:
  convergence: {energy: 1e-06,
                forces: 0.01}
  kpts: {gamma: True,
         size: [6, 6, 6]}
  mixer: {backend: pulay,
          beta: 0.05,
          method: separate,
          nmaxold: 5,
          weight: 50.0}
  mode: {ecut: 450.00000000000006,
         name: pw}
  symmetry: off
  xc: PBE

System changes: positions, numbers, cell, pbc, initial_charges, initial_magmoms 

Initialize ...

species:
  Cs:
    name: Caesium
    id: fa822afd343f47335d508b9ee4f394c3
    Z: 55.0
    valence: 9
    core: 46
    charge: 0.0
    file: /home/luis-ochoa/.gpaw/gpaw-setups-24.11.0/Cs.PBE.gz
    compensation charges: {type: gauss,
                           rc: 0.33,
                           lmax: 2}
    cutoffs: {filter: 2.06,
              core: 2.51}
    projectors:
      #              energy  rcut
      - 5s(2.00)   -26.706   1.164
      - 6s(1.00)    -2.085   1.164
      - 5p(6.00)   -13.523   1.058
      -  p          13.688   1.058
      -  d           0.000   1.058
  
    # Using partial waves for Cs as LCAO basis

  Pb:
    name: Lead
    id: 66e73b13d76dc837202bcdb13fee58e6
    Z: 82.0
    valence: 14
    core: 68
    charge: 0.0
    file: /home/luis-ochoa/.gpaw/gpaw-setups-24.11.0/Pb.PBE.gz
    compensation charges: {type: gauss,
                           rc: 0.38,
                           lmax: 2}
    cutoffs: {filter: 2.36,
              core: 2.43}
    projectors:
      #              energy  rcut
      - 6s(2.00)   -11.969   1.259
      - 6p(2.00)    -3.506   1.275
      - 5d(10.00)   -21.211   1.217
      -  s          15.243   1.259
      -  p          23.705   1.275
      -  d           6.001   1.217
  
    # Using partial waves for Pb as LCAO basis

  I:
    name: Iodine
    id: 91405a398e4dfe788ff04f57531604ec
    Z: 53.0
    valence: 7
    core: 46
    charge: 0.0
    file: /home/luis-ochoa/.gpaw/gpaw-setups-24.11.0/I.PBE.gz
    compensation charges: {type: gauss,
                           rc: 0.37,
                           lmax: 2}
    cutoffs: {filter: 2.06,
              core: 2.90}
    projectors:
      #              energy  rcut
      - 5s(2.00)   -17.382   1.164
      - 5p(5.00)    -7.088   1.164
      -  s           9.829   1.164
      -  p          20.123   1.164
      -  d           0.000   1.164
  
    # Using partial waves for I as LCAO basis

Reference energy: -1359696.926849  # eV

Spin-paired calculation

Convergence criteria:
 Maximum [total energy] change in last 3 cyles: 1e-06 eV / valence electron
 Maximum integral of absolute [dens]ity change: 0.0001 electrons / valence electron
 Maximum integral of absolute [eigenst]ate change: 4e-08 eV^2 / valence electron
 Maximum change in the atomic [forces] across last 2 cycles: 0.01 eV/Ang OR
Maximum error relative to the maximum force is below inf
 Maximum number of scf [iter]ations: 333
 (Square brackets indicate name in SCF output, whereas a 'c' in
 the SCF output indicates the quantity has converged.)

Symmetries present (total): 1

  ( 1  0  0)
  ( 0  1  0)
  ( 0  0  1)

216 k-points: 6 x 6 x 6 Monkhorst-Pack grid + [1/12,1/12,1/12]
216 k-points in the irreducible part of the Brillouin zone
       k-points in crystal coordinates                weights
   0:    -0.33333333   -0.33333333   -0.33333333          1/216
   1:    -0.33333333   -0.33333333   -0.16666667          1/216
   2:    -0.33333333   -0.33333333    0.00000000          1/216
   3:    -0.33333333   -0.33333333    0.16666667          1/216
   4:    -0.33333333   -0.33333333    0.33333333          1/216
   5:    -0.33333333   -0.33333333    0.50000000          1/216
   6:    -0.33333333   -0.16666667   -0.33333333          1/216
   7:    -0.33333333   -0.16666667   -0.16666667          1/216
   8:    -0.33333333   -0.16666667    0.00000000          1/216
   9:    -0.33333333   -0.16666667    0.16666667          1/216
          ...
 215:     0.50000000    0.50000000    0.50000000          1/216

Wave functions: Plane wave expansion
  Cutoff energy: 450.000 eV
  Number of coefficients (min, max): 5040, 5141
  Pulay-stress correction: 0.000000 eV/Ang^3 (de/decut=0.000000)
  Using Numpy's FFT
  ScaLapack parameters: grid=1x1, blocksize=None
  Wavefunction extrapolation:
    Improved wavefunction reuse through dual PAW basis 

Occupation numbers: Fermi-Dirac:
  width: 0.1000  # eV
 

Eigensolver
   Davidson(niter=2) 

Densities:
  Coarse grid: 32*32*32 grid
  Fine grid: 64*64*64 grid
  Total Charge: 0.000000 

Density mixing:
  Method: separate
  Backend: pulay
  Linear mixing parameter: 0.05
  old densities: 5
  Damping of long wavelength oscillations: 50 

Hamiltonian:
  XC and Coulomb potentials evaluated on a 64*64*64 grid
  Using the PBE Exchange-Correlation functional
  External potential:
    NoExternalPotential
 

XC parameters: PBE with 2 nearest neighbor stencil

Memory estimate:
  Process memory now: 143.71 MiB
  Calculator: 699.66 MiB
    Density: 17.18 MiB
      Arrays: 6.50 MiB
      Localized functions: 8.18 MiB
      Mixer: 2.50 MiB
    Hamiltonian: 4.47 MiB
      Arrays: 4.25 MiB
      XC: 0.00 MiB
      Poisson: 0.00 MiB
      vbar: 0.22 MiB
    Wavefunctions: 678.01 MiB
      Arrays psit_nG: 440.55 MiB
      Eigensolver: 2.54 MiB
      Projections: 6.00 MiB
      Projectors: 210.73 MiB
      PW-descriptor: 18.19 MiB

Total number of cores used: 1

Number of atoms: 5
Number of atomic orbitals: 26
Number of bands in calculation: 26
Number of valence electrons: 44
Bands to converge: occupied

... initialized

Initializing position-dependent things.

Density initialized from atomic densities
Creating initial wave functions:
  26 bands from LCAO basis set

     .--------------.  
    /|              |  
   / |              |  
  /  |              |  
 *   |              |  
 |   |              |  
 | I |    Pb        |  
 |   |              |  
 |   .--I-----------.  
 |  /              /   
 | /      I       /    
 |/              /     
 Cs-------------*      

Atomic positions and initial magnetic moments

Positions:
   0 Cs     0.000000    0.000000    0.000000    ( 0.0000,  0.0000,  0.0000)
   1 Pb     3.090000    3.090000    3.090000    ( 0.0000,  0.0000,  0.0000)
   2 I      3.090000    0.000000    3.090000    ( 0.0000,  0.0000,  0.0000)
   3 I      0.000000    3.090000    3.090000    ( 0.0000,  0.0000,  0.0000)
   4 I      3.090000    3.090000    0.000000    ( 0.0000,  0.0000,  0.0000)

Unit cell:
           periodic     x           y           z      points  spacing
  1. axis:    yes    6.180000    0.000000    0.000000    32     0.1931
  2. axis:    yes    0.000000    6.180000    0.000000    32     0.1931
  3. axis:    yes    0.000000    0.000000    6.180000    32     0.1931

  Lengths:   6.180000   6.180000   6.180000
  Angles:   90.000000  90.000000  90.000000

Effective grid spacing dv^(1/3) = 0.1931

     iter     time        total  log10-change:
                         energy   eigst   dens  force
iter:   1 02:58:59   -14.366090
iter:   2 03:00:28   -14.323306   -1.36  -1.34
iter:   3 03:01:57   -14.114503   -2.11  -1.39
iter:   4 03:03:28   -14.072849   -1.96  -1.56
iter:   5 03:04:57   -14.054135   -3.02  -1.79
iter:   6 03:06:26   -14.055564   -4.15  -2.28
iter:   7 03:07:55   -14.053575   -3.88  -2.43
iter:   8 03:09:24   -14.053724   -4.40  -2.59
iter:   9 03:10:57   -14.053691   -5.60  -3.17
iter:  10 03:12:28   -14.053683c  -5.81  -3.26
iter:  11 03:13:57   -14.053687c  -6.64  -3.23
iter:  12 03:15:29   -14.053716c  -5.18  -3.23
iter:  13 03:17:07   -14.053699c  -6.43  -3.64
iter:  14 03:18:48   -14.053699c  -7.74c -4.12c
iter:  15 03:20:27   -14.053700c  -8.16c -4.18c -13.24c

Converged after 15 iterations.

Dipole moment: (0.000000, -0.000000, -0.000000) |e|*Ang

Energy contributions relative to reference atoms: (reference = -1359696.926849)

Kinetic:        +38.763998
Potential:      -37.413194
External:        +0.000000
XC:             -15.288954
Entropy (-ST):   -0.000170
Local:           -0.115465
SIC:             +0.000000
--------------------------
Free energy:    -14.053784
Extrapolated:   -14.053700

Showing only first 2 kpts
 Kpt  Band  Eigenvalues  Occupancy
  0    20      1.83315    2.00000
  0    21      1.87414    2.00000
  0    22      5.56976    0.00000
  0    23      5.56976    0.00000

  1    20      1.81016    2.00000
  1    21      1.84134    2.00000
  1    22      5.75732    0.00000
  1    23      5.85828    0.00000


Fermi level: 3.65957

Gap: 1.089 eV
Transition (v -> c):
  (s=0, k=215, n=21, [0.50, 0.50, 0.50]) -> (s=0, k=215, n=22, [0.50, 0.50, 0.50])
No difference between direct/indirect transitions

Forces in eV/Ang:
  0 Cs    0.00000   -0.00000   -0.00000
  1 Pb   -0.00000    0.00000   -0.00000
  2 I    -0.00000   -0.00000    0.00000
  3 I     0.00000    0.00000    0.00000
  4 I    -0.00000    0.00000    0.00000

Writing to calculations/alpha/01_relax/relax.gpw (mode='')

Timing:                              incl.     excl.
-----------------------------------------------------------
Forces:                              2.464     2.464   0.2% |
Hamiltonian:                         0.396     0.003   0.0% |
 Atomic:                             0.258     0.001   0.0% |
  XC Correction:                     0.257     0.257   0.0% |
 Calculate atomic Hamiltonians:      0.017     0.017   0.0% |
 Communicate:                        0.000     0.000   0.0% |
 Initialize Hamiltonian:             0.000     0.000   0.0% |
 Poisson:                            0.001     0.001   0.0% |
 XC 3D grid:                         0.116     0.116   0.0% |
LCAO initialization:                40.419     0.210   0.0% |
 LCAO eigensolver:                   2.126     0.008   0.0% |
  Calculate projections:             0.037     0.037   0.0% |
  DenseAtomicCorrection:             0.084     0.084   0.0% |
  Distribute overlap matrix:         0.004     0.004   0.0% |
  Orbital Layouts:                   1.018     1.018   0.1% |
  Potential matrix:                  0.088     0.088   0.0% |
  Sum over cells:                    0.888     0.888   0.1% |
 LCAO to grid:                      36.327    36.327   2.6% ||
 Set positions (LCAO WFS):           1.756     0.249   0.0% |
  Basic WFS set positions:           0.000     0.000   0.0% |
  Basis functions set positions:     0.000     0.000   0.0% |
  P tci:                             1.043     1.043   0.1% |
  ST tci:                            0.456     0.456   0.0% |
  mktci:                             0.008     0.008   0.0% |
PWDescriptor:                        0.238     0.238   0.0% |
SCF-cycle:                        1377.109     1.010   0.1% |
 Davidson:                        1269.055    93.003   6.5% |--|
  Apply H:                         284.919   279.816  19.7% |-------|
   HMM T:                            5.102     5.102   0.4% |
  Subspace diag:                   324.858     0.296   0.0% |
   calc_h_matrix:                  300.940    14.477   1.0% |
    Apply H:                       286.464   279.843  19.7% |-------|
     HMM T:                          6.620     6.620   0.5% |
   diagonalize:                      4.650     4.650   0.3% |
   rotate_psi:                      18.971    18.971   1.3% ||
  calc. matrices:                  384.861    43.600   3.1% ||
   Apply H:                        341.262   335.883  23.6% |--------|
    HMM T:                           5.378     5.378   0.4% |
  diagonalize:                      66.629    66.629   4.7% |-|
  rotate_psi:                      114.785   114.785   8.1% |--|
 Density:                           84.546     0.000   0.0% |
  Atomic density matrices:           0.480     0.480   0.0% |
  Mix:                               1.154     1.154   0.1% |
  Multipole moments:                 0.003     0.003   0.0% |
  Pseudo density:                   82.909    82.909   5.8% |-|
   Symmetrize density:               0.000     0.000   0.0% |
 Forces:                             5.168     5.168   0.4% |
 Hamiltonian:                        5.863     0.100   0.0% |
  Atomic:                            3.648     0.013   0.0% |
   XC Correction:                    3.635     3.635   0.3% |
  Calculate atomic Hamiltonians:     0.177     0.177   0.0% |
  Communicate:                       0.000     0.000   0.0% |
  Poisson:                           0.058     0.058   0.0% |
  XC 3D grid:                        1.879     1.879   0.1% |
 Orthonormalize:                    11.468     0.022   0.0% |
  calc_s_matrix:                     1.317     1.317   0.1% |
  inverse-cholesky:                  0.031     0.031   0.0% |
  projections:                       9.187     9.187   0.6% |
  rotate_psi_s:                      0.911     0.911   0.1% |
Set symmetry:                        0.000     0.000   0.0% |
Other:                               2.085     2.085   0.1% |
-----------------------------------------------------------
Total:                                      1422.711 100.0%

Memory usage: 971.55 MiB
Date: Thu Apr 23 03:20:30 2026
