
  ___ ___ ___ _ _ _  
 |   |   |_  | | | | 
 | | | | | . | | | | 
 |__ |  _|___|_____|  25.7.0
 |___|_|             

User:   luis-ochoa@luis-pc
Date:   Sat May  9 03:46:55 2026
Arch:   x86_64
Pid:    11840
CWD:    /home/luis-ochoa/Documents/Vscode/py/dft
Python: 3.12.3
gpaw:   /home/luis-ochoa/Documents/Vscode/py/dft/.venv/lib/python3.12/site-packages/gpaw
_gpaw:  /home/luis-ochoa/Documents/Vscode/py/dft/.venv/lib/python3.12/site-packages/
        _gpaw.cpython-312-x86_64-linux-gnu.so
ase:    /home/luis-ochoa/Documents/Vscode/py/dft/.venv/lib/python3.12/site-packages/ase (version 3.28.0)
numpy:  /home/luis-ochoa/Documents/Vscode/py/dft/.venv/lib/python3.12/site-packages/numpy (version 2.4.4)
scipy:  /home/luis-ochoa/Documents/Vscode/py/dft/.venv/lib/python3.12/site-packages/scipy (version 1.17.1)
libxc:  5.2.3
units:  Angstrom and eV
cores: 7
OpenMP: False
OMP_NUM_THREADS: 1

Reading from /home/luis-ochoa/Documents/Vscode/py/dft/calculations/top8_pbe/MAPbI3/02_scf/scf.gpw
Read dipole, energy, free_energy, magmom, magmoms
Reading input parameters:
  convergence: {bands: occupied,
                density: 0.0001,
                eigenstates: 4e-08,
                energy: 1e-08}
  kpts: {gamma: True,
         size: [4, 4, 4]}
  mixer: {backend: pulay,
          beta: 0.05,
          method: separate,
          nmaxold: 5,
          weight: 50.0}
  mode: {ecut: 450.00000000000006,
         name: pw}
  symmetry: off
  xc: PBE

Initialize ...

species:
  Pb:
    name: Lead
    id: 66e73b13d76dc837202bcdb13fee58e6
    Z: 82.0
    valence: 14
    core: 68
    charge: 0.0
    file: /home/luis-ochoa/.gpaw/gpaw-setups-24.11.0/Pb.PBE.gz
    compensation charges: {type: gauss,
                           rc: 0.38,
                           lmax: 2}
    cutoffs: {filter: 2.36,
              core: 2.43}
    projectors:
      #              energy  rcut
      - 6s(2.00)   -11.969   1.259
      - 6p(2.00)    -3.506   1.275
      - 5d(10.00)   -21.211   1.217
      -  s          15.243   1.259
      -  p          23.705   1.275
      -  d           6.001   1.217
  
    # Using partial waves for Pb as LCAO basis

  I:
    name: Iodine
    id: 91405a398e4dfe788ff04f57531604ec
    Z: 53.0
    valence: 7
    core: 46
    charge: 0.0
    file: /home/luis-ochoa/.gpaw/gpaw-setups-24.11.0/I.PBE.gz
    compensation charges: {type: gauss,
                           rc: 0.37,
                           lmax: 2}
    cutoffs: {filter: 2.06,
              core: 2.90}
    projectors:
      #              energy  rcut
      - 5s(2.00)   -17.382   1.164
      - 5p(5.00)    -7.088   1.164
      -  s           9.829   1.164
      -  p          20.123   1.164
      -  d           0.000   1.164
  
    # Using partial waves for I as LCAO basis

  C:
    name: Carbon
    id: 4aa54d4b901d75f77cc0ea3eec22967b
    Z: 6.0
    valence: 4
    core: 2
    charge: 0.0
    file: /home/luis-ochoa/.gpaw/gpaw-setups-24.11.0/C.PBE.gz
    compensation charges: {type: gauss,
                           rc: 0.20,
                           lmax: 2}
    cutoffs: {filter: 1.14,
              core: 1.14}
    projectors:
      #              energy  rcut
      - 2s(2.00)   -13.751   0.635
      - 2p(2.00)    -5.284   0.635
      -  s          13.461   0.635
      -  p          21.927   0.635
      -  d           0.000   0.635
  
    # Using partial waves for C as LCAO basis

  N:
    name: Nitrogen
    id: f7500608b86eaa90eef8b1d9a670dc53
    Z: 7.0
    valence: 5
    core: 2
    charge: 0.0
    file: /home/luis-ochoa/.gpaw/gpaw-setups-24.11.0/N.PBE.gz
    compensation charges: {type: gauss,
                           rc: 0.18,
                           lmax: 2}
    cutoffs: {filter: 1.11,
              core: 0.96}
    projectors:
      #              energy  rcut
      - 2s(2.00)   -18.583   0.603
      - 2p(3.00)    -7.089   0.529
      -  s           8.629   0.603
      -  p          20.123   0.529
      -  d           0.000   0.577
  
    # Using partial waves for N as LCAO basis

  H:
    name: Hydrogen
    id: d65de229564ff8ea4db303e23b6d1ecf
    Z: 1.0
    valence: 1
    core: 0
    charge: 0.0
    file: /home/luis-ochoa/.gpaw/gpaw-setups-24.11.0/H.PBE.gz
    compensation charges: {type: gauss,
                           rc: 0.15,
                           lmax: 2}
    cutoffs: {filter: 0.85,
              core: 0.53}
    projectors:
      #              energy  rcut
      - 1s(1.00)    -6.494   0.476
      -  s          20.717   0.476
      -  p           0.000   0.476
  
    # Using partial waves for H as LCAO basis

Reference energy: -1150481.140956  # eV

Spin-paired calculation

Convergence criteria:
 Maximum [total energy] change in last 3 cyles: 1e-08 eV / valence electron
 Maximum integral of absolute [dens]ity change: 0.0001 electrons / valence electron
 Maximum integral of absolute [eigenst]ate change: 4e-08 eV^2 / valence electron
 Maximum number of scf [iter]ations: 333
 (Square brackets indicate name in SCF output, whereas a 'c' in
 the SCF output indicates the quantity has converged.)

Symmetries present (total): 1

  ( 1  0  0)
  ( 0  1  0)
  ( 0  0  1)

64 k-points: 4 x 4 x 4 Monkhorst-Pack grid + [1/8,1/8,1/8]
64 k-points in the irreducible part of the Brillouin zone
       k-points in crystal coordinates                weights
   0:    -0.25000000   -0.25000000   -0.25000000          1/64
   1:    -0.25000000   -0.25000000    0.00000000          1/64
   2:    -0.25000000   -0.25000000    0.25000000          1/64
   3:    -0.25000000   -0.25000000    0.50000000          1/64
   4:    -0.25000000    0.00000000   -0.25000000          1/64
   5:    -0.25000000    0.00000000    0.00000000          1/64
   6:    -0.25000000    0.00000000    0.25000000          1/64
   7:    -0.25000000    0.00000000    0.50000000          1/64
   8:    -0.25000000    0.25000000   -0.25000000          1/64
   9:    -0.25000000    0.25000000    0.00000000          1/64
          ...
  63:     0.50000000    0.50000000    0.50000000          1/64

Wave functions: Plane wave expansion
  Cutoff energy: 450.000 eV
  Number of coefficients (min, max): 5406, 5520
  Pulay-stress correction: 0.000000 eV/Ang^3 (de/decut=0.000000)
  Using Numpy's FFT
  ScaLapack parameters: grid=1x1, blocksize=None
  Wavefunction extrapolation:
    Improved wavefunction reuse through dual PAW basis 

Occupation numbers: Fermi-Dirac:
  width: 0.1000  # eV
 

Eigensolver
   Davidson(niter=2) 

Densities:
  Coarse grid: 32*32*32 grid
  Fine grid: 64*64*64 grid
  Total Charge: 0.000000 

Density mixing:
  Method: separate
  Backend: pulay
  Linear mixing parameter: 0.05
  old densities: 5
  Damping of long wavelength oscillations: 50 

Hamiltonian:
  XC and Coulomb potentials evaluated on a 64*64*64 grid
  Using the PBE Exchange-Correlation functional
  External potential:
    NoExternalPotential
 

XC parameters: PBE with 2 nearest neighbor stencil

Memory estimate:
  Process memory now: 378.55 MiB
  Calculator: 69.32 MiB
    Density: 20.62 MiB
      Arrays: 6.50 MiB
      Localized functions: 11.62 MiB
      Mixer: 2.50 MiB
    Hamiltonian: 4.61 MiB
      Arrays: 4.25 MiB
      XC: 0.00 MiB
      Poisson: 0.00 MiB
      vbar: 0.36 MiB
    Wavefunctions: 44.09 MiB
      Arrays psit_nG: 25.77 MiB
      Eigensolver: 3.46 MiB
      Projections: 0.53 MiB
      Projectors: 12.32 MiB
      PW-descriptor: 2.01 MiB

Total number of cores used: 7
Parallelization over k-points: 7

Number of atoms: 12
Number of atomic orbitals: 35
Number of bands in calculation: 34
Number of valence electrons: 50
Bands to converge: occupied

... initialized

Input parameters:
  convergence: {bands: -12}
  fixdensity: True
  kpts: {cell: Cell([6.31, 6.31, 6.31]),
         kpts: [[0.         0.         0.        ]
 [0.         0.02941176 0.        ]
 [0.         0.05882353 0.        ]
 ...
 [0.04       0.04       0.        ]
 [0.02       0.02       0.        ]
 [0.         0.         0.        ]],
         labelseq: GXMG,
         special_points: {'G': array([0., 0., 0.]), 'M': array([0.5, 0.5, 0. ]), 'R': array([0.5, 0.5, 0.5]), 'X': array([0. , 0.5, 0. ])}}

Initialize ...

species:
  Pb:
    name: Lead
    id: 66e73b13d76dc837202bcdb13fee58e6
    Z: 82.0
    valence: 14
    core: 68
    charge: 0.0
    file: /home/luis-ochoa/.gpaw/gpaw-setups-24.11.0/Pb.PBE.gz
    compensation charges: {type: gauss,
                           rc: 0.38,
                           lmax: 2}
    cutoffs: {filter: 2.36,
              core: 2.43}
    projectors:
      #              energy  rcut
      - 6s(2.00)   -11.969   1.259
      - 6p(2.00)    -3.506   1.275
      - 5d(10.00)   -21.211   1.217
      -  s          15.243   1.259
      -  p          23.705   1.275
      -  d           6.001   1.217
  
    # Using partial waves for Pb as LCAO basis

  I:
    name: Iodine
    id: 91405a398e4dfe788ff04f57531604ec
    Z: 53.0
    valence: 7
    core: 46
    charge: 0.0
    file: /home/luis-ochoa/.gpaw/gpaw-setups-24.11.0/I.PBE.gz
    compensation charges: {type: gauss,
                           rc: 0.37,
                           lmax: 2}
    cutoffs: {filter: 2.06,
              core: 2.90}
    projectors:
      #              energy  rcut
      - 5s(2.00)   -17.382   1.164
      - 5p(5.00)    -7.088   1.164
      -  s           9.829   1.164
      -  p          20.123   1.164
      -  d           0.000   1.164
  
    # Using partial waves for I as LCAO basis

  C:
    name: Carbon
    id: 4aa54d4b901d75f77cc0ea3eec22967b
    Z: 6.0
    valence: 4
    core: 2
    charge: 0.0
    file: /home/luis-ochoa/.gpaw/gpaw-setups-24.11.0/C.PBE.gz
    compensation charges: {type: gauss,
                           rc: 0.20,
                           lmax: 2}
    cutoffs: {filter: 1.14,
              core: 1.14}
    projectors:
      #              energy  rcut
      - 2s(2.00)   -13.751   0.635
      - 2p(2.00)    -5.284   0.635
      -  s          13.461   0.635
      -  p          21.927   0.635
      -  d           0.000   0.635
  
    # Using partial waves for C as LCAO basis

  N:
    name: Nitrogen
    id: f7500608b86eaa90eef8b1d9a670dc53
    Z: 7.0
    valence: 5
    core: 2
    charge: 0.0
    file: /home/luis-ochoa/.gpaw/gpaw-setups-24.11.0/N.PBE.gz
    compensation charges: {type: gauss,
                           rc: 0.18,
                           lmax: 2}
    cutoffs: {filter: 1.11,
              core: 0.96}
    projectors:
      #              energy  rcut
      - 2s(2.00)   -18.583   0.603
      - 2p(3.00)    -7.089   0.529
      -  s           8.629   0.603
      -  p          20.123   0.529
      -  d           0.000   0.577
  
    # Using partial waves for N as LCAO basis

  H:
    name: Hydrogen
    id: d65de229564ff8ea4db303e23b6d1ecf
    Z: 1.0
    valence: 1
    core: 0
    charge: 0.0
    file: /home/luis-ochoa/.gpaw/gpaw-setups-24.11.0/H.PBE.gz
    compensation charges: {type: gauss,
                           rc: 0.15,
                           lmax: 2}
    cutoffs: {filter: 0.85,
              core: 0.53}
    projectors:
      #              energy  rcut
      - 1s(1.00)    -6.494   0.476
      -  s          20.717   0.476
      -  p           0.000   0.476
  
    # Using partial waves for H as LCAO basis

Reference energy: -1150481.140956  # eV

Spin-paired calculation

Convergence criteria:
 Maximum [total energy] change in last 3 cyles: 0.0005 eV / valence electron
 Maximum integral of absolute [dens]ity change: 0.0001 electrons / valence electron
 Maximum integral of absolute [eigenst]ate change: 4e-08 eV^2 / valence electron
 Maximum number of scf [iter]ations: 333
 (Square brackets indicate name in SCF output, whereas a 'c' in
 the SCF output indicates the quantity has converged.)

Symmetries present (total): 1

  ( 1  0  0)
  ( 0  1  0)
  ( 0  0  1)

60 k-points
60 k-points in the irreducible part of the Brillouin zone
       k-points in crystal coordinates                weights
   0:     0.00000000    0.00000000    0.00000000       0.01666667
   1:     0.00000000    0.02941176    0.00000000       0.01666667
   2:     0.00000000    0.05882353    0.00000000       0.01666667
   3:     0.00000000    0.08823529    0.00000000       0.01666667
   4:     0.00000000    0.11764706    0.00000000       0.01666667
   5:     0.00000000    0.14705882    0.00000000       0.01666667
   6:     0.00000000    0.17647059    0.00000000       0.01666667
   7:     0.00000000    0.20588235    0.00000000       0.01666667
   8:     0.00000000    0.23529412    0.00000000       0.01666667
   9:     0.00000000    0.26470588    0.00000000       0.01666667
          ...
  59:     0.00000000    0.00000000    0.00000000       0.01666667

Wave functions: Plane wave expansion
  Cutoff energy: 450.000 eV
  Number of coefficients (min, max): 5406, 5462
  Pulay-stress correction: 0.000000 eV/Ang^3 (de/decut=0.000000)
  Using Numpy's FFT
  ScaLapack parameters: grid=1x1, blocksize=None
  Wavefunction extrapolation:
    Improved wavefunction reuse through dual PAW basis 

Occupation numbers: Fermi-Dirac:
  width: 0.1000  # eV
 

Eigensolver
   Davidson(niter=2) 

No density mixing

XC parameters: PBE with 2 nearest neighbor stencil

Memory estimate:
  Process memory now: 378.55 MiB
  Calculator: 64.68 MiB
    Density: 20.62 MiB
      Arrays: 6.50 MiB
      Localized functions: 11.62 MiB
      Mixer: 2.50 MiB
    Hamiltonian: 4.61 MiB
      Arrays: 4.25 MiB
      XC: 0.00 MiB
      Poisson: 0.00 MiB
      vbar: 0.36 MiB
    Wavefunctions: 39.45 MiB
      Arrays psit_nG: 22.67 MiB
      Eigensolver: 3.43 MiB
      Projections: 0.47 MiB
      Projectors: 10.97 MiB
      PW-descriptor: 1.92 MiB

Total number of cores used: 7
Parallelization over k-points: 7

Number of atoms: 12
Number of atomic orbitals: 35
Number of bands in calculation: 34
Number of valence electrons: 50
Bands to converge: 22

... initialized

Initializing position-dependent things.

Creating initial wave functions:
  34 bands from LCAO basis set

     .---------------Pb 
    /|               |  
   / |               |  
  /  |               |  
 *   I   I  HH       |  
 |   |      N        |  
 |   | H       H     |  
 |   |   HC          |  
 |   .-----H---------.  
 |  /               /   
 | /              I/    
 |/               /     
 *---------------*      

Atomic positions and initial magnetic moments

Positions:
   0 Pb    -0.102537   -0.102535   -0.102530    ( 0.0000,  0.0000,  0.0000)
   1 I      3.020478    0.042048   -0.400794    ( 0.0000,  0.0000,  0.0000)
   2 I     -0.400795    3.020478    0.042051    ( 0.0000,  0.0000,  0.0000)
   3 I      0.042047   -0.400795    3.020479    ( 0.0000,  0.0000,  0.0000)
   4 C      2.754403    2.754406    2.754402    ( 0.0000,  0.0000,  0.0000)
   5 N      3.614852    3.614856    3.614855    ( 0.0000,  0.0000,  0.0000)
   6 H      3.364678    1.943597    2.343155    ( 0.0000,  0.0000,  0.0000)
   7 H      2.343156    3.364685    1.943596    ( 0.0000,  0.0000,  0.0000)
   8 H      1.943598    2.343153    3.364678    ( 0.0000,  0.0000,  0.0000)
   9 H      3.085989    4.392155    4.075331    ( 0.0000,  0.0000,  0.0000)
  10 H      4.392154    4.075330    3.085993    ( 0.0000,  0.0000,  0.0000)
  11 H      4.075324    3.085991    4.392155    ( 0.0000,  0.0000,  0.0000)

Unit cell:
           periodic     x           y           z      points  spacing
  1. axis:    yes    6.310000    0.000000    0.000000    32     0.1972
  2. axis:    yes    0.000000    6.310000    0.000000    32     0.1972
  3. axis:    yes    0.000000    0.000000    6.310000    32     0.1972

  Lengths:   6.310000   6.310000   6.310000
  Angles:   90.000000  90.000000  90.000000

Effective grid spacing dv^(1/3) = 0.1972

     iter     time        total  log10-change:
                         energy   eigst   dens
iter:   1 03:47:06   -50.807097   +0.08       c
iter:   2 03:47:10   -50.895257   -1.39       c
iter:   3 03:47:14   -50.900049   -2.47       c
iter:   4 03:47:19   -50.900489c  -3.47       c
iter:   5 03:47:23   -50.900541c  -4.38       c
iter:   6 03:47:28   -50.900549c  -5.20       c
iter:   7 03:47:32   -50.900550c  -5.93       c
iter:   8 03:47:36   -50.900551c  -6.59       c
iter:   9 03:47:41   -50.900551c  -7.19       c
iter:  10 03:47:45   -50.900551c  -7.77c      c

Converged after 10 iterations.

Dipole moment: (15.360072, 15.359894, 15.359552) |e|*Ang

Energy contributions relative to reference atoms: (reference = -1150481.140956)

Kinetic:        +61.506850
Potential:      -67.475588
External:        +0.000000
XC:             -44.813431
Entropy (-ST):   -0.000006
Local:           -0.118378
SIC:             +0.000000
--------------------------
Free energy:    -50.900554
Extrapolated:   -50.900551

Showing only first 2 kpts
 Kpt  Band  Eigenvalues  Occupancy
  0    23      0.51242    2.00000
  0    24      0.51243    2.00000
  0    25      5.13005    0.00000
  0    26      6.33336    0.00000

  1    23      0.51307    2.00000
  1    24      0.51965    2.00000
  1    25      5.13582    0.00000
  1    26      6.29611    0.00000


Fermi level: 2.40984

Gap: 2.370 eV
Transition (v -> c):
  (s=0, k=34, n=24, [0.50, 0.50, 0.00]) -> (s=0, k=35, n=25, [0.48, 0.48, 0.00])
Direct/indirect transitions are different
Direct gap: 2.376 eV
Transition at: (s=0, k=35, n=24, [0.48, 0.48, 0.00])
Writing to /home/luis-ochoa/Documents/Vscode/py/dft/calculations/top8_pbe/MAPbI3/03_bands/bands.gpw (mode='')

Timing:                              incl.     excl.
-----------------------------------------------------------
Hamiltonian:                         0.257     0.002   0.0% |
 Atomic:                             0.105     0.048   0.1% |
  XC Correction:                     0.057     0.057   0.1% |
 Calculate atomic Hamiltonians:      0.059     0.059   0.1% |
 Communicate:                        0.000     0.000   0.0% |
 Poisson:                            0.002     0.002   0.0% |
 XC 3D grid:                         0.090     0.090   0.2% |
LCAO initialization:                 3.788     0.330   0.7% |
 LCAO eigensolver:                   0.200     0.000   0.0% |
  Calculate projections:             0.003     0.003   0.0% |
  DenseAtomicCorrection:             0.007     0.007   0.0% |
  Distribute overlap matrix:         0.000     0.000   0.0% |
  Orbital Layouts:                   0.005     0.005   0.0% |
  Potential matrix:                  0.182     0.182   0.4% |
  Sum over cells:                    0.003     0.003   0.0% |
 LCAO to grid:                       2.819     2.819   5.6% |-|
 Set positions (LCAO WFS):           0.438     0.072   0.1% |
  Basic WFS set positions:           0.001     0.001   0.0% |
  Basis functions set positions:     0.000     0.000   0.0% |
  P tci:                             0.181     0.181   0.4% |
  ST tci:                            0.166     0.166   0.3% |
  mktci:                             0.018     0.018   0.0% |
PWDescriptor:                        0.025     0.025   0.1% |
Redistribute:                        0.000     0.000   0.0% |
SCF-cycle:                          45.024     6.435  12.9% |----|
 Davidson:                          38.322     7.545  15.1% |-----|
  Apply H:                           5.469     5.349  10.7% |---|
   HMM T:                            0.120     0.120   0.2% |
  Subspace diag:                     7.502     0.010   0.0% |
   calc_h_matrix:                    6.348     0.876   1.7% ||
    Apply H:                         5.472     5.349  10.7% |---|
     HMM T:                          0.122     0.122   0.2% |
   diagonalize:                      0.045     0.045   0.1% |
   rotate_psi:                       1.100     1.100   2.2% ||
  calc. matrices:                   15.256     4.366   8.7% |--|
   Apply H:                         10.889    10.655  21.3% |--------|
    HMM T:                           0.235     0.235   0.5% |
  diagonalize:                       0.360     0.360   0.7% |
  rotate_psi:                        2.190     2.190   4.4% |-|
 Orthonormalize:                     0.267     0.001   0.0% |
  calc_s_matrix:                     0.048     0.048   0.1% |
  inverse-cholesky:                  0.002     0.002   0.0% |
  projections:                       0.157     0.157   0.3% |
  rotate_psi_s:                      0.060     0.060   0.1% |
Set symmetry:                        0.000     0.000   0.0% |
Other:                               0.970     0.970   1.9% ||
-----------------------------------------------------------
Total:                                        50.064 100.0%

Memory usage: 433.52 MiB
Date: Sat May  9 03:47:45 2026
