
  ___ ___ ___ _ _ _  
 |   |   |_  | | | | 
 | | | | | . | | | | 
 |__ |  _|___|_____|  25.7.0
 |___|_|             

User:   luis-ochoa@luis-pc
Date:   Tue May 19 02:20:34 2026
Arch:   x86_64
Pid:    163111
CWD:    /home/luis-ochoa/Documents/Vscode/py/dft
Python: 3.12.3
gpaw:   /home/luis-ochoa/Documents/Vscode/py/dft/.venv/lib/python3.12/site-packages/gpaw
_gpaw:  /home/luis-ochoa/Documents/Vscode/py/dft/.venv/lib/python3.12/site-packages/
        _gpaw.cpython-312-x86_64-linux-gnu.so
ase:    /home/luis-ochoa/Documents/Vscode/py/dft/.venv/lib/python3.12/site-packages/ase (version 3.28.0)
numpy:  /home/luis-ochoa/Documents/Vscode/py/dft/.venv/lib/python3.12/site-packages/numpy (version 2.4.4)
scipy:  /home/luis-ochoa/Documents/Vscode/py/dft/.venv/lib/python3.12/site-packages/scipy (version 1.17.1)
libxc:  5.2.3
units:  Angstrom and eV
cores: 7
OpenMP: False
OMP_NUM_THREADS: 1

Input parameters:
  convergence: {energy: 1e-06,
                forces: 0.01}
  kpts: {gamma: True,
         size: [6, 6, 6]}
  mixer: {backend: pulay,
          beta: 0.05,
          method: separate,
          nmaxold: 5,
          weight: 50.0}
  mode: {ecut: 450.00000000000006,
         name: pw}
  xc: PBE

System changes: positions, numbers, cell, pbc, initial_charges, initial_magmoms 

Initialize ...

species:
  Pb:
    name: Lead
    id: 66e73b13d76dc837202bcdb13fee58e6
    Z: 82.0
    valence: 14
    core: 68
    charge: 0.0
    file: /home/luis-ochoa/.gpaw/gpaw-setups-24.11.0/Pb.PBE.gz
    compensation charges: {type: gauss,
                           rc: 0.38,
                           lmax: 2}
    cutoffs: {filter: 2.36,
              core: 2.43}
    projectors:
      #              energy  rcut
      - 6s(2.00)   -11.969   1.259
      - 6p(2.00)    -3.506   1.275
      - 5d(10.00)   -21.211   1.217
      -  s          15.243   1.259
      -  p          23.705   1.275
      -  d           6.001   1.217
  
    # Using partial waves for Pb as LCAO basis

  I:
    name: Iodine
    id: 91405a398e4dfe788ff04f57531604ec
    Z: 53.0
    valence: 7
    core: 46
    charge: 0.0
    file: /home/luis-ochoa/.gpaw/gpaw-setups-24.11.0/I.PBE.gz
    compensation charges: {type: gauss,
                           rc: 0.37,
                           lmax: 2}
    cutoffs: {filter: 2.06,
              core: 2.90}
    projectors:
      #              energy  rcut
      - 5s(2.00)   -17.382   1.164
      - 5p(5.00)    -7.088   1.164
      -  s           9.829   1.164
      -  p          20.123   1.164
      -  d           0.000   1.164
  
    # Using partial waves for I as LCAO basis

  C:
    name: Carbon
    id: 4aa54d4b901d75f77cc0ea3eec22967b
    Z: 6.0
    valence: 4
    core: 2
    charge: 0.0
    file: /home/luis-ochoa/.gpaw/gpaw-setups-24.11.0/C.PBE.gz
    compensation charges: {type: gauss,
                           rc: 0.20,
                           lmax: 2}
    cutoffs: {filter: 1.14,
              core: 1.14}
    projectors:
      #              energy  rcut
      - 2s(2.00)   -13.751   0.635
      - 2p(2.00)    -5.284   0.635
      -  s          13.461   0.635
      -  p          21.927   0.635
      -  d           0.000   0.635
  
    # Using partial waves for C as LCAO basis

  N:
    name: Nitrogen
    id: f7500608b86eaa90eef8b1d9a670dc53
    Z: 7.0
    valence: 5
    core: 2
    charge: 0.0
    file: /home/luis-ochoa/.gpaw/gpaw-setups-24.11.0/N.PBE.gz
    compensation charges: {type: gauss,
                           rc: 0.18,
                           lmax: 2}
    cutoffs: {filter: 1.11,
              core: 0.96}
    projectors:
      #              energy  rcut
      - 2s(2.00)   -18.583   0.603
      - 2p(3.00)    -7.089   0.529
      -  s           8.629   0.603
      -  p          20.123   0.529
      -  d           0.000   0.577
  
    # Using partial waves for N as LCAO basis

  H:
    name: Hydrogen
    id: d65de229564ff8ea4db303e23b6d1ecf
    Z: 1.0
    valence: 1
    core: 0
    charge: 0.0
    file: /home/luis-ochoa/.gpaw/gpaw-setups-24.11.0/H.PBE.gz
    compensation charges: {type: gauss,
                           rc: 0.15,
                           lmax: 2}
    cutoffs: {filter: 0.85,
              core: 0.53}
    projectors:
      #              energy  rcut
      - 1s(1.00)    -6.494   0.476
      -  s          20.717   0.476
      -  p           0.000   0.476
  
    # Using partial waves for H as LCAO basis

Reference energy: -1151950.372298  # eV

Spin-paired calculation

Convergence criteria:
 Maximum [total energy] change in last 3 cyles: 1e-06 eV / valence electron
 Maximum integral of absolute [dens]ity change: 0.0001 electrons / valence electron
 Maximum integral of absolute [eigenst]ate change: 4e-08 eV^2 / valence electron
 Maximum change in the atomic [forces] across last 2 cycles: 0.01 eV/Ang OR
Maximum error relative to the maximum force is below inf
 Maximum number of scf [iter]ations: 333
 (Square brackets indicate name in SCF output, whereas a 'c' in
 the SCF output indicates the quantity has converged.)

Symmetries present (total): 4

  ( 1  0  0)  ( 1  0  0)  (-1  0  0)  (-1  0  0)
  ( 0  1  0)  ( 0 -1  0)  ( 0  1  0)  ( 0 -1  0)
  ( 0  0  1)  ( 0  0  1)  ( 0  0  1)  ( 0  0  1)

216 k-points: 6 x 6 x 6 Monkhorst-Pack grid + [1/12,1/12,1/12]
64 k-points in the irreducible part of the Brillouin zone
       k-points in crystal coordinates                weights
   0:     0.00000000    0.00000000    0.00000000          1/216
   1:     0.00000000    0.00000000    0.16666667          2/216
   2:     0.00000000    0.00000000    0.33333333          2/216
   3:     0.00000000    0.00000000    0.50000000          1/216
   4:     0.00000000    0.16666667    0.00000000          2/216
   5:     0.00000000    0.16666667    0.16666667          4/216
   6:     0.00000000    0.16666667    0.33333333          4/216
   7:     0.00000000    0.16666667    0.50000000          2/216
   8:     0.00000000    0.33333333    0.00000000          2/216
   9:     0.00000000    0.33333333    0.16666667          4/216
          ...
  63:     0.50000000    0.50000000    0.50000000          1/216

Wave functions: Plane wave expansion
  Cutoff energy: 450.000 eV
  Number of coefficients (min, max): 5542, 5632
  Pulay-stress correction: 0.000000 eV/Ang^3 (de/decut=0.000000)
  Using Numpy's FFT
  ScaLapack parameters: grid=1x1, blocksize=None
  Wavefunction extrapolation:
    Improved wavefunction reuse through dual PAW basis 

Occupation numbers: Fermi-Dirac:
  width: 0.1000  # eV
 

Eigensolver
   Davidson(niter=2) 

Densities:
  Coarse grid: 32*32*32 grid
  Fine grid: 64*64*64 grid
  Total Charge: 0.000000 

Density mixing:
  Method: separate
  Backend: pulay
  Linear mixing parameter: 0.05
  old densities: 5
  Damping of long wavelength oscillations: 50 

Hamiltonian:
  XC and Coulomb potentials evaluated on a 64*64*64 grid
  Using the PBE Exchange-Correlation functional
  External potential:
    NoExternalPotential
 

XC parameters: PBE with 2 nearest neighbor stencil

Memory estimate:
  Process memory now: 138.74 MiB
  Calculator: 73.20 MiB
    Density: 20.91 MiB
      Arrays: 6.50 MiB
      Localized functions: 11.91 MiB
      Mixer: 2.50 MiB
    Hamiltonian: 4.61 MiB
      Arrays: 4.25 MiB
      XC: 0.00 MiB
      Poisson: 0.00 MiB
      vbar: 0.36 MiB
    Wavefunctions: 47.68 MiB
      Arrays psit_nG: 28.62 MiB
      Eigensolver: 3.82 MiB
      Projections: 0.61 MiB
      Projectors: 12.60 MiB
      PW-descriptor: 2.02 MiB

Total number of cores used: 7
Parallelization over k-points: 7

Number of atoms: 12
Number of atomic orbitals: 38
Number of bands in calculation: 37
Number of valence electrons: 54
Bands to converge: occupied

... initialized

Initializing position-dependent things.

Density initialized from atomic densities
Creating initial wave functions:
  37 bands from LCAO basis set

     .---------------.  
    /|               |  
   / |               |  
  /  |               |  
 *   |               |  
 |   | H   H    H    |  
 |   |  N  C  N      |  
 |   |H        H     |  
 I   .---------------.  
 |  /               /   
 | I               /    
 |/               /     
 Pb------I-------*      

Atomic positions and initial magnetic moments

Positions:
   0 Pb     0.000000    0.000000    0.000000    ( 0.0000,  0.0000,  0.0000)
   1 I      3.180000    0.000000    0.000000    ( 0.0000,  0.0000,  0.0000)
   2 I      0.000000    3.180000    0.000000    ( 0.0000,  0.0000,  0.0000)
   3 I      0.000000    0.000000    3.180000    ( 0.0000,  0.0000,  0.0000)
   4 C      3.180000    3.180000    3.180000    ( 0.0000,  0.0000,  0.0000)
   5 N      1.900000    3.180000    3.180000    ( 0.0000,  0.0000,  0.0000)
   6 N      4.460000    3.180000    3.180000    ( 0.0000,  0.0000,  0.0000)
   7 H      3.180000    3.180000    4.280000    ( 0.0000,  0.0000,  0.0000)
   8 H      1.390000    4.063346    3.180000    ( 0.0000,  0.0000,  0.0000)
   9 H      1.390000    2.296654    3.180000    ( 0.0000,  0.0000,  0.0000)
  10 H      4.970000    4.063346    3.180000    ( 0.0000,  0.0000,  0.0000)
  11 H      4.970000    2.296654    3.180000    ( 0.0000,  0.0000,  0.0000)

Unit cell:
           periodic     x           y           z      points  spacing
  1. axis:    yes    6.360000    0.000000    0.000000    32     0.1988
  2. axis:    yes    0.000000    6.360000    0.000000    32     0.1988
  3. axis:    yes    0.000000    0.000000    6.360000    32     0.1988

  Lengths:   6.360000   6.360000   6.360000
  Angles:   90.000000  90.000000  90.000000

Effective grid spacing dv^(1/3) = 0.1988

     iter     time        total  log10-change:
                         energy   eigst   dens  force
iter:   1 02:20:48   -49.775744
iter:   2 02:20:56   -48.048782   -1.17  -0.96
iter:   3 02:21:04   -47.022665   -1.84  -1.05
iter:   4 02:21:11   -46.595811   -2.00  -1.12
iter:   5 02:21:19   -46.385746   -1.36  -1.20
iter:   6 02:21:25   -46.250017   -2.64  -1.51
iter:   7 02:21:32   -46.415947   -1.99  -1.61
iter:   8 02:21:38   -46.236559   -2.42  -1.65
iter:   9 02:21:46   -46.255467   -3.22  -1.89
iter:  10 02:21:53   -46.233570   -3.39  -2.02
iter:  11 02:22:00   -46.228636   -4.20  -2.35
iter:  12 02:22:08   -46.224625   -3.99  -2.45
iter:  13 02:22:15   -46.223867   -4.36  -2.65
iter:  14 02:22:22   -46.223897   -5.23  -2.79
iter:  15 02:22:30   -46.223635   -4.91  -2.91
iter:  16 02:22:37   -46.223455   -5.79  -3.13
iter:  17 02:22:44   -46.223377   -6.34  -3.26
iter:  18 02:22:51   -46.223370   -6.07  -3.32
iter:  19 02:22:57   -46.223369c  -6.52  -3.42
iter:  20 02:23:04   -46.223372c  -7.12  -3.55
iter:  21 02:23:11   -46.223332c  -6.65  -3.69
iter:  22 02:23:17   -46.223320c  -7.60c -3.86
iter:  23 02:23:24   -46.223323c  -7.68c -3.91
iter:  24 02:23:31   -46.223329c  -7.47c -3.99
iter:  25 02:23:38   -46.223320c  -7.59c -4.09c
iter:  26 02:23:46   -46.223320c  -8.26c -4.16c -2.81c

Converged after 26 iterations.

Dipole moment: (-0.000000, -0.000000, 0.071416) |e|*Ang

Energy contributions relative to reference atoms: (reference = -1151950.372298)

Kinetic:        +70.688570
Potential:      -66.600587
External:        +0.000000
XC:             -50.018085
Entropy (-ST):   -0.225563
Local:           -0.180435
SIC:             +0.000000
--------------------------
Free energy:    -46.336101
Extrapolated:   -46.223320

Showing only first 2 kpts
 Kpt  Band  Eigenvalues  Occupancy
  0    25      0.86865    2.00000
  0    26      2.33668    0.62400
  0    27      2.45734    0.23895
  0    28      5.02987    0.00000

  1    25      0.87046    2.00000
  1    26      2.31526    0.71942
  1    27      2.44770    0.26000
  1    28      5.15616    0.00000


Fermi level: 2.25760

No gap
No difference between direct/indirect transitions

Forces in eV/Ang:
  0 Pb    0.00000    0.00000    0.00803
  1 I     0.00000    0.00000   -0.03976
  2 I     0.00000    0.00000    0.05861
  3 I     0.00000    0.00000    0.00179
  4 C     0.00000    0.00000    1.53378
  5 N    -2.60108    0.00000   -2.33022
  6 N     2.60108    0.00000   -2.33022
  7 H     0.00000    0.00000    3.16169
  8 H    -0.89022    0.69297   -0.01738
  9 H    -0.89022   -0.69297   -0.01738
 10 H     0.89022    0.69297   -0.01738
 11 H     0.89022   -0.69297   -0.01738

System changes: positions 

Initializing position-dependent things.

Density initialized from wave functions
     .---------------.  
    /|               |  
   / |               |  
  /  |               |  
 *   |   I           |  
 |   | H   H    H    |  
 |   |  N  C  N      |  
 |   |H        H     |  
 I   .---------------.  
 |  /               /   
 | I               /    
 |/               /     
 Pb--------------*      

Atomic positions and initial magnetic moments

Positions:
   0 Pb     0.000000    0.000000    0.000115    ( 0.0000,  0.0000,  0.0000)
   1 I      3.180000    0.000000   -0.000568    ( 0.0000,  0.0000,  0.0000)
   2 I      0.000000    3.180000    0.000837    ( 0.0000,  0.0000,  0.0000)
   3 I      0.000000    0.000000    3.180026    ( 0.0000,  0.0000,  0.0000)
   4 C      3.180000    3.180000    3.201911    ( 0.0000,  0.0000,  0.0000)
   5 N      1.862842    3.180000    3.146711    ( 0.0000,  0.0000,  0.0000)
   6 N      4.497158    3.180000    3.146711    ( 0.0000,  0.0000,  0.0000)
   7 H      3.180000    3.180000    4.325167    ( 0.0000,  0.0000,  0.0000)
   8 H      1.377283    4.073245    3.179752    ( 0.0000,  0.0000,  0.0000)
   9 H      1.377283    2.286755    3.179752    ( 0.0000,  0.0000,  0.0000)
  10 H      4.982717    4.073245    3.179752    ( 0.0000,  0.0000,  0.0000)
  11 H      4.982717    2.286755    3.179752    ( 0.0000,  0.0000,  0.0000)

Unit cell:
           periodic     x           y           z      points  spacing
  1. axis:    yes    6.360000    0.000000    0.000000    32     0.1988
  2. axis:    yes    0.000000    6.360000    0.000000    32     0.1988
  3. axis:    yes    0.000000    0.000000    6.360000    32     0.1988

  Lengths:   6.360000   6.360000   6.360000
  Angles:   90.000000  90.000000  90.000000

Effective grid spacing dv^(1/3) = 0.1988

     iter     time        total  log10-change:
                         energy   eigst   dens  force
iter:   1 02:23:55   -46.962740   -1.61
iter:   2 02:24:01   -46.862478   -2.94  -1.59
iter:   3 02:24:08   -46.755698   -2.72  -1.73
iter:   4 02:24:14   -46.748981   -3.78  -2.27
iter:   5 02:24:21   -46.737469   -3.37  -2.33
iter:   6 02:24:27   -46.740196   -3.75  -2.40
iter:   7 02:24:34   -46.736663   -4.16  -2.50
iter:   8 02:24:40   -46.735793   -4.13  -2.74
iter:   9 02:24:47   -46.736015   -4.56  -3.00
iter:  10 02:24:54   -46.735614   -4.93  -2.99
iter:  11 02:25:00   -46.735591   -5.33  -3.44
iter:  12 02:25:06   -46.735568c  -6.33  -3.59
iter:  13 02:25:13   -46.735565c  -6.44  -3.69
iter:  14 02:25:19   -46.735574c  -7.30  -3.96
iter:  15 02:25:26   -46.735577c  -7.39  -4.01c
iter:  16 02:25:32   -46.735578c  -7.06  -4.04c
iter:  17 02:25:40   -46.735578c  -8.13c -4.18c
iter:  18 02:25:47   -46.735583c  -7.29  -4.21c
iter:  19 02:25:54   -46.735581c  -7.97c -4.46c -1.94
iter:  20 02:26:02   -46.735579c  -8.49c -4.57c -2.64c

Converged after 20 iterations.

Dipole moment: (-0.000000, -0.000000, 0.045419) |e|*Ang

Energy contributions relative to reference atoms: (reference = -1151950.372298)

Kinetic:        +64.590856
Potential:      -62.254772
External:        +0.000000
XC:             -48.758527
Entropy (-ST):   -0.247556
Local:           -0.189358
SIC:             +0.000000
--------------------------
Free energy:    -46.859357
Extrapolated:   -46.735579

Showing only first 2 kpts
 Kpt  Band  Eigenvalues  Occupancy
  0    25      0.85148    1.99999
  0    26      2.10559    0.69908
  0    27      2.27657    0.17720
  0    28      5.00315    0.00000

  1    25      0.85405    1.99999
  1    26      2.07526    0.84246
  1    27      2.26555    0.19583
  1    28      5.12706    0.00000


Fermi level: 2.04349

No gap
No difference between direct/indirect transitions

Forces in eV/Ang:
  0 Pb    0.00000    0.00000    0.01053
  1 I     0.00000    0.00000   -0.03742
  2 I     0.00000    0.00000    0.03618
  3 I     0.00000    0.00000    0.00897
  4 C     0.00000    0.00000    3.47538
  5 N    -0.47763    0.00000   -2.65687
  6 N     0.47763    0.00000   -2.65687
  7 H     0.00000    0.00000    1.96252
  8 H    -0.87588    0.61877   -0.01766
  9 H    -0.87588   -0.61877   -0.01766
 10 H     0.87588    0.61877   -0.01766
 11 H     0.87588   -0.61877   -0.01766

System changes: positions 

Initializing position-dependent things.

Density initialized from wave functions
     .---------------.  
    /|               |  
   / |               |  
  /  |               |  
 *   |   I H         |  
 |   | H        H    |  
 |   | N   C   N     |  
 |   |H        H     |  
 I   .---------------.  
 |  /               /   
 | I               /    
 |/               /     
 Pb--------------*      

Atomic positions and initial magnetic moments

Positions:
   0 Pb     0.000000    0.000000    0.000739    ( 0.0000,  0.0000,  0.0000)
   1 I      3.180000    0.000000   -0.003186    ( 0.0000,  0.0000,  0.0000)
   2 I      0.000000    3.180000    0.004087    ( 0.0000,  0.0000,  0.0000)
   3 I      0.000000    0.000000    3.180377    ( 0.0000,  0.0000,  0.0000)
   4 C      3.180000    3.180000    3.368061    ( 0.0000,  0.0000,  0.0000)
   5 N      1.754783    3.180000    2.978416    ( 0.0000,  0.0000,  0.0000)
   6 N      4.605217    3.180000    2.978416    ( 0.0000,  0.0000,  0.0000)
   7 H      3.180000    3.180000    4.500839    ( 0.0000,  0.0000,  0.0000)
   8 H      1.317450    4.117798    3.178566    ( 0.0000,  0.0000,  0.0000)
   9 H      1.317450    2.242202    3.178566    ( 0.0000,  0.0000,  0.0000)
  10 H      5.042550    4.117798    3.178566    ( 0.0000,  0.0000,  0.0000)
  11 H      5.042550    2.242202    3.178566    ( 0.0000,  0.0000,  0.0000)

Unit cell:
           periodic     x           y           z      points  spacing
  1. axis:    yes    6.360000    0.000000    0.000000    32     0.1988
  2. axis:    yes    0.000000    6.360000    0.000000    32     0.1988
  3. axis:    yes    0.000000    0.000000    6.360000    32     0.1988

  Lengths:   6.360000   6.360000   6.360000
  Angles:   90.000000  90.000000  90.000000

Effective grid spacing dv^(1/3) = 0.1988

     iter     time        total  log10-change:
                         energy   eigst   dens  force
iter:   1 02:26:10   -53.488412   -0.29
iter:   2 02:26:17   -51.068013   -1.69  -1.02
iter:   3 02:26:24   -52.148045   -0.74  -1.06
iter:   4 02:26:30   -49.593367   -1.76  -1.17
iter:   5 02:26:37   -49.623932   -2.85  -1.33
iter:   6 02:26:43   -49.030373   -2.41  -1.32
iter:   7 02:26:50   -48.711857   -2.64  -1.39
iter:   8 02:26:56   -48.929046   -1.62  -1.44
iter:   9 02:27:03   -49.626882   -1.23  -1.38
iter:  10 02:27:09   -48.362083   -1.84  -1.20
iter:  11 02:27:16   -48.151786   -2.13  -1.58
iter:  12 02:27:22   -48.117709   -2.94  -1.97
iter:  13 02:27:29   -48.130857   -3.42  -1.90
iter:  14 02:27:35   -48.123018   -3.96  -2.07
iter:  15 02:27:42   -48.118395   -3.34  -2.06
iter:  16 02:27:49   -48.117183   -3.07  -1.89
iter:  17 02:27:56   -48.114988   -3.54  -2.12
iter:  18 02:28:02   -48.113221   -4.80  -2.49
iter:  19 02:28:09   -48.111446   -4.30  -2.53
iter:  20 02:28:16   -48.111497   -5.09  -2.84
iter:  21 02:28:23   -48.111470c  -5.61  -2.90
iter:  22 02:28:29   -48.110659   -5.17  -2.96
iter:  23 02:28:36   -48.110712   -6.22  -3.13
iter:  24 02:28:42   -48.110617   -5.93  -3.17
iter:  25 02:28:49   -48.110738   -5.89  -3.35
iter:  26 02:28:55   -48.110713   -6.75  -3.44
iter:  27 02:29:02   -48.110749c  -6.73  -3.47
iter:  28 02:29:09   -48.110818   -6.40  -3.51
iter:  29 02:29:15   -48.110740   -6.57  -3.69
iter:  30 02:29:22   -48.110739   -7.77c -3.87
iter:  31 02:29:29   -48.110752c  -7.58c -3.92
iter:  32 02:29:36   -48.110752c  -7.51c -4.02c
iter:  33 02:29:45   -48.110774c  -7.49c -4.07c -1.79
iter:  34 02:29:52   -48.110758c  -8.39c -4.21c -2.82c

Converged after 34 iterations.

Dipole moment: (-0.000000, -0.000000, 0.045009) |e|*Ang

Energy contributions relative to reference atoms: (reference = -1151950.372298)

Kinetic:        +41.301638
Potential:      -45.358685
External:        +0.000000
XC:             -43.749948
Entropy (-ST):   -0.208103
Local:           -0.199711
SIC:             +0.000000
--------------------------
Free energy:    -48.214809
Extrapolated:   -48.110758

Showing only first 2 kpts
 Kpt  Band  Eigenvalues  Occupancy
  0    25      0.73432    1.99919
  0    26      1.55112    0.82062
  0    27      1.84818    0.06889
  0    28      4.94425    0.00000

  1    25      0.81452    1.99818
  1    26      1.46769    1.23151
  1    27      1.83495    0.07825
  1    28      5.05646    0.00000


Fermi level: 1.51485

No gap
No difference between direct/indirect transitions

Forces in eV/Ang:
  0 Pb    0.00000    0.00000    0.01931
  1 I     0.00000    0.00000   -0.09067
  2 I     0.00000    0.00000   -0.15399
  3 I     0.00000    0.00000    0.02948
  4 C     0.00000    0.00000    3.08766
  5 N     3.71072    0.00000   -1.51814
  6 N    -3.71072    0.00000   -1.51814
  7 H     0.00000    0.00000   -0.49932
  8 H    -0.13768   -0.93098    0.16381
  9 H    -0.13768    0.93098    0.16381
 10 H     0.13768   -0.93098    0.16381
 11 H     0.13768    0.93098    0.16381

System changes: positions 

Initializing position-dependent things.

Density initialized from wave functions
     .---------------.  
    /|               |  
   / |               |  
  /  |               |  
 *   |   I H         |  
 |   | H        H    |  
 |   | N   C   N     |  
 |   |H        H     |  
 I   .---------------.  
 |  /               /   
 | I               /    
 |/               /     
 Pb--------------*      

Atomic positions and initial magnetic moments

Positions:
   0 Pb     0.000000    0.000000    0.001041    ( 0.0000,  0.0000,  0.0000)
   1 I      3.180000    0.000000   -0.004760    ( 0.0000,  0.0000,  0.0000)
   2 I      0.000000    3.180000    0.002493    ( 0.0000,  0.0000,  0.0000)
   3 I      0.000000    0.000000    3.180736    ( 0.0000,  0.0000,  0.0000)
   4 C      3.180000    3.180000    3.402154    ( 0.0000,  0.0000,  0.0000)
   5 N      1.769376    3.180000    2.945110    ( 0.0000,  0.0000,  0.0000)
   6 N      4.590624    3.180000    2.945110    ( 0.0000,  0.0000,  0.0000)
   7 H      3.180000    3.180000    4.526270    ( 0.0000,  0.0000,  0.0000)
   8 H      1.309622    4.109704    3.180798    ( 0.0000,  0.0000,  0.0000)
   9 H      1.309622    2.250296    3.180798    ( 0.0000,  0.0000,  0.0000)
  10 H      5.050378    4.109704    3.180798    ( 0.0000,  0.0000,  0.0000)
  11 H      5.050378    2.250296    3.180798    ( 0.0000,  0.0000,  0.0000)

Unit cell:
           periodic     x           y           z      points  spacing
  1. axis:    yes    6.360000    0.000000    0.000000    32     0.1988
  2. axis:    yes    0.000000    6.360000    0.000000    32     0.1988
  3. axis:    yes    0.000000    0.000000    6.360000    32     0.1988

  Lengths:   6.360000   6.360000   6.360000
  Angles:   90.000000  90.000000  90.000000

Effective grid spacing dv^(1/3) = 0.1988

     iter     time        total  log10-change:
                         energy   eigst   dens  force
iter:   1 02:30:01   -48.442642   -2.06
iter:   2 02:30:08   -48.435568   -3.21  -2.18
iter:   3 02:30:14   -48.422492   -3.52  -2.25
iter:   4 02:30:20   -48.424095   -4.35  -2.47
iter:   5 02:30:27   -48.423585   -4.97  -2.59
iter:   6 02:30:33   -48.422504   -4.25  -2.62
iter:   7 02:30:39   -48.421475   -5.22  -3.02
iter:   8 02:30:46   -48.421372   -5.44  -3.16
iter:   9 02:30:52   -48.421516   -5.71  -3.28
iter:  10 02:30:58   -48.421498   -6.58  -3.55
iter:  11 02:31:05   -48.421457   -7.03  -3.63
iter:  12 02:31:11   -48.421583   -6.83  -3.79
iter:  13 02:31:18   -48.421581   -7.41c -4.03c
iter:  14 02:31:25   -48.421551c  -7.49c -4.17c
iter:  15 02:31:33   -48.421555c  -8.36c -4.38c -2.83c

Converged after 15 iterations.

Dipole moment: (-0.000000, -0.000000, 0.234288) |e|*Ang

Energy contributions relative to reference atoms: (reference = -1151950.372298)

Kinetic:        +39.881836
Potential:      -44.569623
External:        +0.000000
XC:             -43.440963
Entropy (-ST):   -0.195089
Local:           -0.195261
SIC:             +0.000000
--------------------------
Free energy:    -48.519100
Extrapolated:   -48.421555

Showing only first 2 kpts
 Kpt  Band  Eigenvalues  Occupancy
  0    25      0.73503    1.99873
  0    26      1.47796    0.96465
  0    27      1.82996    0.05368
  0    28      4.98860    0.00000

  1    25      0.81667    1.99712
  1    26      1.39050    1.38157
  1    27      1.81786    0.06037
  1    28      5.10613    0.00000


Fermi level: 1.47088

No gap
No difference between direct/indirect transitions

Forces in eV/Ang:
  0 Pb    0.00000    0.00000    0.02138
  1 I     0.00000    0.00000   -0.10856
  2 I     0.00000    0.00000   -0.20070
  3 I     0.00000    0.00000    0.03044
  4 C     0.00000    0.00000    2.18598
  5 N     3.50385    0.00000   -0.99283
  6 N    -3.50385    0.00000   -0.99283
  7 H     0.00000    0.00000   -0.37762
  8 H     0.09537   -1.12316    0.13025
  9 H     0.09537    1.12316    0.13025
 10 H    -0.09537   -1.12316    0.13025
 11 H    -0.09537    1.12316    0.13025

System changes: positions 

Initializing position-dependent things.

Density initialized from wave functions
     .---------------.  
    /|               |  
   I |               |  
  /  |               |  
 *   |   I H         |  
 |   | H        H    |  
 |   |  N  C  N      |  
 |   |H        H     |  
 I   .---------------.  
 |  /               /   
 | /               /    
 |/               /     
 Pb--------------*      

Atomic positions and initial magnetic moments

Positions:
   0 Pb     0.000000    0.000000    0.002924    ( 0.0000,  0.0000,  0.0000)
   1 I      3.180000    0.000000   -0.015162    ( 0.0000,  0.0000,  0.0000)
   2 I      0.000000    3.180000   -0.012929    ( 0.0000,  0.0000,  0.0000)
   3 I      0.000000    0.000000    3.183132    ( 0.0000,  0.0000,  0.0000)
   4 C      3.180000    3.180000    3.518117    ( 0.0000,  0.0000,  0.0000)
   5 N      1.933278    3.180000    2.830497    ( 0.0000,  0.0000,  0.0000)
   6 N      4.426722    3.180000    2.830497    ( 0.0000,  0.0000,  0.0000)
   7 H      3.180000    3.180000    4.605183    ( 0.0000,  0.0000,  0.0000)
   8 H      1.300201    4.020224    3.194649    ( 0.0000,  0.0000,  0.0000)
   9 H      1.300201    2.339776    3.194649    ( 0.0000,  0.0000,  0.0000)
  10 H      5.059799    4.020224    3.194649    ( 0.0000,  0.0000,  0.0000)
  11 H      5.059799    2.339776    3.194649    ( 0.0000,  0.0000,  0.0000)

Unit cell:
           periodic     x           y           z      points  spacing
  1. axis:    yes    6.360000    0.000000    0.000000    32     0.1988
  2. axis:    yes    0.000000    6.360000    0.000000    32     0.1988
  3. axis:    yes    0.000000    0.000000    6.360000    32     0.1988

  Lengths:   6.360000   6.360000   6.360000
  Angles:   90.000000  90.000000  90.000000

Effective grid spacing dv^(1/3) = 0.1988

     iter     time        total  log10-change:
                         energy   eigst   dens  force
iter:   1 02:31:42   -50.079872   -0.71
iter:   2 02:31:48   -49.963312   -1.92  -1.58
iter:   3 02:31:55   -49.663244   -1.79  -1.63
iter:   4 02:32:01   -49.656888   -3.02  -1.62
iter:   5 02:32:08   -49.624182   -3.33  -1.86
iter:   6 02:32:14   -49.640132   -2.88  -1.97
iter:   7 02:32:20   -49.652787   -3.76  -2.16
iter:   8 02:32:27   -49.618374   -3.46  -2.15
iter:   9 02:32:33   -49.620147   -4.99  -2.66
iter:  10 02:32:40   -49.617052   -5.03  -2.67
iter:  11 02:32:46   -49.618360   -4.86  -2.88
iter:  12 02:32:52   -49.617200   -5.66  -3.17
iter:  13 02:32:59   -49.617086   -6.20  -3.32
iter:  14 02:33:05   -49.617167   -6.69  -3.40
iter:  15 02:33:12   -49.617328   -6.31  -3.44
iter:  16 02:33:18   -49.617370   -7.21  -3.66
iter:  17 02:33:25   -49.617384   -6.78  -3.71
iter:  18 02:33:33   -49.617305   -7.20  -3.80
iter:  19 02:33:46   -49.617275   -7.35  -3.90
iter:  20 02:34:00   -49.617285c  -7.22  -4.03c
iter:  21 02:34:13   -49.617352   -8.08c -4.24c
iter:  22 02:34:25   -49.617364   -8.88c -4.45c
iter:  23 02:34:42   -49.617370c  -7.93c -4.50c
iter:  24 02:34:58   -49.617375c  -8.78c -4.79c -2.97c

Converged after 24 iterations.

Dipole moment: (-0.000000, -0.000000, 1.709847) |e|*Ang

Energy contributions relative to reference atoms: (reference = -1151950.372298)

Kinetic:        +40.870738
Potential:      -46.767224
External:        +0.000000
XC:             -43.490563
Entropy (-ST):   -0.088366
Local:           -0.186143
SIC:             +0.000000
--------------------------
Free energy:    -49.661558
Extrapolated:   -49.617375

Showing only first 2 kpts
 Kpt  Band  Eigenvalues  Occupancy
  0    25      0.80167    1.99561
  0    26      1.03826    1.95424
  0    27      1.98374    0.00667
  0    28      4.94324    0.00000

  1    25      0.85967    1.99218
  1    26      0.96079    1.97865
  1    27      1.98117    0.00684
  1    28      5.08504    0.00000


Fermi level: 1.41369

No gap
No difference between direct/indirect transitions

Forces in eV/Ang:
  0 Pb    0.00000    0.00000    0.02988
  1 I     0.00000    0.00000   -0.15619
  2 I     0.00000    0.00000   -0.37758
  3 I     0.00000    0.00000    0.02525
  4 C     0.00000    0.00000   -0.92777
  5 N     0.02685    0.00000    0.99333
  6 N    -0.02685    0.00000    0.99333
  7 H     0.00000    0.00000    0.66295
  8 H     1.27293   -1.21518   -0.32734
  9 H     1.27293    1.21518   -0.32734
 10 H    -1.27293   -1.21518   -0.32734
 11 H    -1.27293    1.21518   -0.32734

System changes: positions 

Initializing position-dependent things.

Density initialized from wave functions
     .---------------.  
    /|               |  
   I |               |  
  /  |               |  
 *   |   I H         |  
 |   | H        H    |  
 |   |H N  C  NH     |  
 |   |               |  
 I   .---------------.  
 |  /               /   
 | /               /    
 |/               /     
 Pb--------------*      

Atomic positions and initial magnetic moments

Positions:
   0 Pb     0.000000    0.000000    0.003496    ( 0.0000,  0.0000,  0.0000)
   1 I      3.180000    0.000000   -0.018194    ( 0.0000,  0.0000,  0.0000)
   2 I      0.000000    3.180000   -0.020425    ( 0.0000,  0.0000,  0.0000)
   3 I      0.000000    0.000000    3.183769    ( 0.0000,  0.0000,  0.0000)
   4 C      3.180000    3.180000    3.510480    ( 0.0000,  0.0000,  0.0000)
   5 N      1.977971    3.180000    2.847351    ( 0.0000,  0.0000,  0.0000)
   6 N      4.382029    3.180000    2.847351    ( 0.0000,  0.0000,  0.0000)
   7 H      3.180000    3.180000    4.595083    ( 0.0000,  0.0000,  0.0000)
   8 H      1.323572    3.986092    3.192337    ( 0.0000,  0.0000,  0.0000)
   9 H      1.323572    2.373908    3.192337    ( 0.0000,  0.0000,  0.0000)
  10 H      5.036428    3.986092    3.192337    ( 0.0000,  0.0000,  0.0000)
  11 H      5.036428    2.373908    3.192337    ( 0.0000,  0.0000,  0.0000)

Unit cell:
           periodic     x           y           z      points  spacing
  1. axis:    yes    6.360000    0.000000    0.000000    32     0.1988
  2. axis:    yes    0.000000    6.360000    0.000000    32     0.1988
  3. axis:    yes    0.000000    0.000000    6.360000    32     0.1988

  Lengths:   6.360000   6.360000   6.360000
  Angles:   90.000000  90.000000  90.000000

Effective grid spacing dv^(1/3) = 0.1988

     iter     time        total  log10-change:
                         energy   eigst   dens  force
iter:   1 02:35:16   -50.178143   -1.74
iter:   2 02:35:29   -50.090245   -3.13  -1.72
iter:   3 02:35:42   -49.861811   -2.00  -1.77
iter:   4 02:35:55   -49.837765   -3.65  -1.85
iter:   5 02:36:08   -49.857758   -3.53  -2.26
iter:   6 02:36:21   -49.831638   -3.41  -2.29
iter:   7 02:36:33   -49.837167   -4.22  -2.62
iter:   8 02:36:46   -49.838059   -4.28  -2.74
iter:   9 02:36:58   -49.832882   -4.73  -2.79
iter:  10 02:37:12   -49.834089   -5.22  -3.19
iter:  11 02:37:23   -49.833137   -5.46  -3.23
iter:  12 02:37:36   -49.833131   -6.19  -3.61
iter:  13 02:37:48   -49.833149c  -7.12  -3.66
iter:  14 02:38:01   -49.833087   -6.76  -3.73
iter:  15 02:38:14   -49.833078   -6.84  -3.88
iter:  16 02:38:27   -49.833051c  -7.67c -3.97
iter:  17 02:38:39   -49.833093c  -7.21  -4.02c
iter:  18 02:38:52   -49.833133   -8.17c -4.08c
iter:  19 02:39:05   -49.833161   -7.35  -4.11c
iter:  20 02:39:21   -49.833163c  -8.14c -4.74c
iter:  21 02:39:36   -49.833164c  -9.24c -4.90c -3.26c

Converged after 21 iterations.

Dipole moment: (0.000000, -0.000000, 2.276239) |e|*Ang

Energy contributions relative to reference atoms: (reference = -1151950.372298)

Kinetic:        +48.520598
Potential:      -52.633928
External:        +0.000000
XC:             -45.491612
Entropy (-ST):   -0.072293
Local:           -0.192075
SIC:             +0.000000
--------------------------
Free energy:    -49.869311
Extrapolated:   -49.833164

Showing only first 2 kpts
 Kpt  Band  Eigenvalues  Occupancy
  0    25      0.81269    1.99658
  0    26      0.96708    1.98406
  0    27      2.05803    0.00454
  0    28      4.96010    0.00000

  1    25      0.86411    1.99428
  1    26      0.90195    1.99166
  1    27      2.05670    0.00460
  1    28      5.10795    0.00000


Fermi level: 1.44951

No gap
No difference between direct/indirect transitions

Forces in eV/Ang:
  0 Pb    0.00000    0.00000    0.02918
  1 I     0.00000    0.00000   -0.14965
  2 I     0.00000    0.00000   -0.36077
  3 I     0.00000    0.00000    0.01801
  4 C     0.00000    0.00000    0.51826
  5 N    -1.15417    0.00000   -0.12982
  6 N     1.15417    0.00000   -0.12982
  7 H     0.00000    0.00000    0.84264
  8 H     1.11000   -0.64704   -0.17549
  9 H     1.11000    0.64704   -0.17549
 10 H    -1.11000   -0.64704   -0.17549
 11 H    -1.11000    0.64704   -0.17549

System changes: positions 

Initializing position-dependent things.

Density initialized from wave functions
     .---------------.  
    /|               |  
   I |               |  
  /  |               |  
 *   |   I H         |  
 |   |               |  
 |   |HHN  C  NHH    |  
 |   |               |  
 I   .---------------.  
 |  /               /   
 | /               /    
 |/               /     
 Pb--------------*      

Atomic positions and initial magnetic moments

Positions:
   0 Pb     0.000000    0.000000    0.004548    ( 0.0000,  0.0000,  0.0000)
   1 I      3.180000    0.000000   -0.023610    ( 0.0000,  0.0000,  0.0000)
   2 I      0.000000    3.180000   -0.032601    ( 0.0000,  0.0000,  0.0000)
   3 I      0.000000    0.000000    3.184674    ( 0.0000,  0.0000,  0.0000)
   4 C      3.180000    3.180000    3.536912    ( 0.0000,  0.0000,  0.0000)
   5 N      1.992276    3.180000    2.838644    ( 0.0000,  0.0000,  0.0000)
   6 N      4.367724    3.180000    2.838644    ( 0.0000,  0.0000,  0.0000)
   7 H      3.180000    3.180000    4.615979    ( 0.0000,  0.0000,  0.0000)
   8 H      1.355153    3.950327    3.188148    ( 0.0000,  0.0000,  0.0000)
   9 H      1.355153    2.409673    3.188148    ( 0.0000,  0.0000,  0.0000)
  10 H      5.004847    3.950327    3.188148    ( 0.0000,  0.0000,  0.0000)
  11 H      5.004847    2.409673    3.188148    ( 0.0000,  0.0000,  0.0000)

Unit cell:
           periodic     x           y           z      points  spacing
  1. axis:    yes    6.360000    0.000000    0.000000    32     0.1988
  2. axis:    yes    0.000000    6.360000    0.000000    32     0.1988
  3. axis:    yes    0.000000    0.000000    6.360000    32     0.1988

  Lengths:   6.360000   6.360000   6.360000
  Angles:   90.000000  90.000000  90.000000

Effective grid spacing dv^(1/3) = 0.1988

     iter     time        total  log10-change:
                         energy   eigst   dens  force
iter:   1 02:39:54   -50.071790   -1.98
iter:   2 02:40:07   -50.049175   -3.32  -1.96
iter:   3 02:40:21   -49.976547   -3.02  -2.01
iter:   4 02:40:35   -50.007873   -3.79  -2.27
iter:   5 02:40:49   -49.980225   -3.28  -2.19
iter:   6 02:41:02   -49.973435   -3.62  -2.56
iter:   7 02:41:15   -49.976954   -3.87  -2.67
iter:   8 02:41:29   -49.974146   -5.15  -2.95
iter:   9 02:41:42   -49.973592   -5.43  -3.15
iter:  10 02:41:56   -49.974022   -5.37  -3.16
iter:  11 02:42:08   -49.973953   -6.00  -3.54
iter:  12 02:42:21   -49.973948   -6.96  -3.61
iter:  13 02:42:34   -49.973873   -6.51  -3.62
iter:  14 02:42:46   -49.973767   -6.38  -3.71
iter:  15 02:42:59   -49.973832   -6.50  -3.96
iter:  16 02:43:12   -49.973876   -7.59c -4.11c
iter:  17 02:43:27   -49.973850c  -7.85c -4.35c
iter:  18 02:43:42   -49.973829c  -8.09c -4.43c -2.32c

Converged after 18 iterations.

Dipole moment: (-0.000000, -0.000000, 3.239360) |e|*Ang

Energy contributions relative to reference atoms: (reference = -1151950.372298)

Kinetic:        +53.582172
Potential:      -56.562550
External:        +0.000000
XC:             -46.760950
Entropy (-ST):   -0.072363
Local:           -0.196319
SIC:             +0.000000
--------------------------
Free energy:    -50.010010
Extrapolated:   -49.973829

Showing only first 2 kpts
 Kpt  Band  Eigenvalues  Occupancy
  0    25      0.78488    1.99666
  0    26      0.88286    1.99112
  0    27      1.97319    0.00821
  0    28      5.13404    0.00000

  1    25      0.82476    1.99502
  1    26      0.83365    1.99456
  1    27      1.97224    0.00829
  1    28      5.28889    0.00000


Fermi level: 1.42410

No gap
No difference between direct/indirect transitions

Forces in eV/Ang:
  0 Pb    0.00000    0.00000    0.03476
  1 I     0.00000    0.00000   -0.15940
  2 I     0.00000    0.00000   -0.34720
  3 I     0.00000    0.00000    0.00858
  4 C     0.00000    0.00000   -0.42459
  5 N    -0.09580    0.00000   -0.20619
  6 N     0.09580    0.00000   -0.20619
  7 H     0.00000    0.00000    0.98534
  8 H     0.45356    0.26824    0.06987
  9 H     0.45356   -0.26824    0.06987
 10 H    -0.45356    0.26824    0.06987
 11 H    -0.45356   -0.26824    0.06987

System changes: positions 

Initializing position-dependent things.

Density initialized from wave functions
     .---------------.  
    /|               |  
   I |               |  
  /  |               |  
 *   |   I H         |  
 |   |               |  
 |   |HHN  C  NHH    |  
 |   |               |  
 I   .---------------.  
 |  /               /   
 | /               /    
 |/               /     
 Pb--------------*      

Atomic positions and initial magnetic moments

Positions:
   0 Pb     0.000000    0.000000    0.005326    ( 0.0000,  0.0000,  0.0000)
   1 I      3.180000    0.000000   -0.027256    ( 0.0000,  0.0000,  0.0000)
   2 I      0.000000    3.180000   -0.040562    ( 0.0000,  0.0000,  0.0000)
   3 I      0.000000    0.000000    3.184994    ( 0.0000,  0.0000,  0.0000)
   4 C      3.180000    3.180000    3.537670    ( 0.0000,  0.0000,  0.0000)
   5 N      1.993885    3.180000    2.832531    ( 0.0000,  0.0000,  0.0000)
   6 N      4.366115    3.180000    2.832531    ( 0.0000,  0.0000,  0.0000)
   7 H      3.180000    3.180000    4.637177    ( 0.0000,  0.0000,  0.0000)
   8 H      1.368039    3.948741    3.188109    ( 0.0000,  0.0000,  0.0000)
   9 H      1.368039    2.411259    3.188109    ( 0.0000,  0.0000,  0.0000)
  10 H      4.991961    3.948741    3.188109    ( 0.0000,  0.0000,  0.0000)
  11 H      4.991961    2.411259    3.188109    ( 0.0000,  0.0000,  0.0000)

Unit cell:
           periodic     x           y           z      points  spacing
  1. axis:    yes    6.360000    0.000000    0.000000    32     0.1988
  2. axis:    yes    0.000000    6.360000    0.000000    32     0.1988
  3. axis:    yes    0.000000    0.000000    6.360000    32     0.1988

  Lengths:   6.360000   6.360000   6.360000
  Angles:   90.000000  90.000000  90.000000

Effective grid spacing dv^(1/3) = 0.1988

     iter     time        total  log10-change:
                         energy   eigst   dens  force
iter:   1 02:43:59   -50.007351   -2.97
iter:   2 02:44:12   -50.008228   -4.38  -2.40
iter:   3 02:44:26   -50.012130   -4.16  -2.54
iter:   4 02:44:38   -50.011431   -4.58  -2.82
iter:   5 02:44:51   -50.009682   -4.34  -2.94
iter:   6 02:45:05   -50.010847   -5.12  -3.13
iter:   7 02:45:18   -50.010074   -5.44  -3.45
iter:   8 02:45:31   -50.009963   -6.49  -3.73
iter:   9 02:45:43   -50.010065   -6.24  -3.78
iter:  10 02:45:57   -50.009991   -6.36  -4.01c
iter:  11 02:46:10   -50.010059   -7.30  -4.21c
iter:  12 02:46:23   -50.010056   -7.89c -4.25c
iter:  13 02:46:39   -50.010015c  -8.14c -4.32c
iter:  14 02:46:55   -50.010013c  -8.37c -4.49c -2.74c

Converged after 14 iterations.

Dipole moment: (-0.000000, -0.000000, 3.860873) |e|*Ang

Energy contributions relative to reference atoms: (reference = -1151950.372298)

Kinetic:        +53.710562
Potential:      -56.722456
External:        +0.000000
XC:             -46.765947
Entropy (-ST):   -0.071884
Local:           -0.196230
SIC:             +0.000000
--------------------------
Free energy:    -50.045955
Extrapolated:   -50.010013

Showing only first 2 kpts
 Kpt  Band  Eigenvalues  Occupancy
  0    25      0.78153    1.99675
  0    26      0.86794    1.99231
  0    27      1.96137    0.00920
  0    28      5.18159    0.00000

  1    25      0.81436    1.99549
  1    26      0.82966    1.99475
  1    27      1.96046    0.00928
  1    28      5.33529    0.00000


Fermi level: 1.42362

No gap
No difference between direct/indirect transitions

Forces in eV/Ang:
  0 Pb    0.00000    0.00000    0.02559
  1 I     0.00000    0.00000   -0.16401
  2 I     0.00000    0.00000   -0.34876
  3 I     0.00000    0.00000    0.01203
  4 C     0.00000    0.00000   -0.00495
  5 N     0.19708    0.00000   -0.15861
  6 N    -0.19708    0.00000   -0.15861
  7 H     0.00000    0.00000    0.29997
  8 H     0.27834    0.39431    0.10881
  9 H     0.27834   -0.39431    0.10881
 10 H    -0.27834    0.39431    0.10881
 11 H    -0.27834   -0.39431    0.10881

System changes: positions 

Initializing position-dependent things.

Density initialized from wave functions
     .---------------.  
    /|               |  
   I |               |  
  /  |               |  
 *   |   I H         |  
 |   | H        H    |  
 |   |H N  C  NH     |  
 |   |               |  
 I   .---------------.  
 |  /               /   
 | /               /    
 |/               /     
 Pb--------------*      

Atomic positions and initial magnetic moments

Positions:
   0 Pb     0.000000    0.000000    0.006610    ( 0.0000,  0.0000,  0.0000)
   1 I      3.180000    0.000000   -0.034614    ( 0.0000,  0.0000,  0.0000)
   2 I      0.000000    3.180000   -0.056374    ( 0.0000,  0.0000,  0.0000)
   3 I      0.000000    0.000000    3.185615    ( 0.0000,  0.0000,  0.0000)
   4 C      3.180000    3.180000    3.539319    ( 0.0000,  0.0000,  0.0000)
   5 N      1.998347    3.180000    2.824267    ( 0.0000,  0.0000,  0.0000)
   6 N      4.361653    3.180000    2.824267    ( 0.0000,  0.0000,  0.0000)
   7 H      3.180000    3.180000    4.661982    ( 0.0000,  0.0000,  0.0000)
   8 H      1.387088    3.955258    3.190304    ( 0.0000,  0.0000,  0.0000)
   9 H      1.387088    2.404742    3.190304    ( 0.0000,  0.0000,  0.0000)
  10 H      4.972912    3.955258    3.190304    ( 0.0000,  0.0000,  0.0000)
  11 H      4.972912    2.404742    3.190304    ( 0.0000,  0.0000,  0.0000)

Unit cell:
           periodic     x           y           z      points  spacing
  1. axis:    yes    6.360000    0.000000    0.000000    32     0.1988
  2. axis:    yes    0.000000    6.360000    0.000000    32     0.1988
  3. axis:    yes    0.000000    0.000000    6.360000    32     0.1988

  Lengths:   6.360000   6.360000   6.360000
  Angles:   90.000000  90.000000  90.000000

Effective grid spacing dv^(1/3) = 0.1988

     iter     time        total  log10-change:
                         energy   eigst   dens  force
iter:   1 02:47:12   -50.042660   -2.74
iter:   2 02:47:25   -50.043396   -4.13  -2.25
iter:   3 02:47:37   -50.047968   -4.29  -2.39
iter:   4 02:47:50   -50.049193   -4.53  -2.72
iter:   5 02:48:03   -50.046631   -4.35  -2.80
iter:   6 02:48:16   -50.045088   -4.83  -3.11
iter:   7 02:48:29   -50.047088   -5.39  -3.19
iter:   8 02:48:42   -50.046848   -6.71  -3.58
iter:   9 02:48:55   -50.046611   -5.78  -3.65
iter:  10 02:49:08   -50.046909   -5.64  -3.68
iter:  11 02:49:20   -50.046741   -6.58  -3.95
iter:  12 02:49:33   -50.046735   -7.31  -4.24c
iter:  13 02:49:47   -50.046750c  -7.30  -4.26c
iter:  14 02:50:03   -50.046740c  -8.18c -4.62c
iter:  15 02:50:19   -50.046741c  -9.00c -4.82c -2.82c

Converged after 15 iterations.

Dipole moment: (0.000000, -0.000000, 5.101500) |e|*Ang

Energy contributions relative to reference atoms: (reference = -1151950.372298)

Kinetic:        +53.242891
Potential:      -56.481907
External:        +0.000000
XC:             -46.574203
Entropy (-ST):   -0.069214
Local:           -0.198915
SIC:             +0.000000
--------------------------
Free energy:    -50.081348
Extrapolated:   -50.046741

Showing only first 2 kpts
 Kpt  Band  Eigenvalues  Occupancy
  0    25      0.78202    1.99698
  0    26      0.85310    1.99386
  0    27      1.96530    0.00956
  0    28      5.22166    0.00000

  1    25      0.80469    1.99621
  1    26      0.82947    1.99515
  1    27      1.96468    0.00961
  1    28      5.37240    0.00000


Fermi level: 1.43140

No gap
No difference between direct/indirect transitions

Forces in eV/Ang:
  0 Pb    0.00000    0.00000    0.03335
  1 I     0.00000    0.00000   -0.16288
  2 I     0.00000    0.00000   -0.33275
  3 I     0.00000    0.00000    0.00330
  4 C     0.00000    0.00000    0.36016
  5 N     0.26195    0.00000    0.04121
  6 N    -0.26195    0.00000    0.04121
  7 H     0.00000    0.00000   -0.38434
  8 H     0.15374    0.32367    0.08546
  9 H     0.15374   -0.32367    0.08546
 10 H    -0.15374    0.32367    0.08546
 11 H    -0.15374   -0.32367    0.08546

System changes: positions 

Initializing position-dependent things.

Density initialized from wave functions
     .---------------.  
    /|               |  
   I |               |  
  /  |               |  
 *   |   I H         |  
 |   | H        H    |  
 |   |H N  C  NH     |  
 |   |               |  
 I   .---------------.  
 |  /               /   
 | /               /    
 |/               /     
 Pb--------------*      

Atomic positions and initial magnetic moments

Positions:
   0 Pb     0.000000    0.000000    0.008328    ( 0.0000,  0.0000,  0.0000)
   1 I      3.180000    0.000000   -0.043449    ( 0.0000,  0.0000,  0.0000)
   2 I      0.000000    3.180000   -0.075354    ( 0.0000,  0.0000,  0.0000)
   3 I      0.000000    0.000000    3.186056    ( 0.0000,  0.0000,  0.0000)
   4 C      3.180000    3.180000    3.539220    ( 0.0000,  0.0000,  0.0000)
   5 N      2.000801    3.180000    2.825054    ( 0.0000,  0.0000,  0.0000)
   6 N      4.359199    3.180000    2.825054    ( 0.0000,  0.0000,  0.0000)
   7 H      3.180000    3.180000    4.671462    ( 0.0000,  0.0000,  0.0000)
   8 H      1.407661    3.967309    3.193177    ( 0.0000,  0.0000,  0.0000)
   9 H      1.407661    2.392691    3.193177    ( 0.0000,  0.0000,  0.0000)
  10 H      4.952339    3.967309    3.193177    ( 0.0000,  0.0000,  0.0000)
  11 H      4.952339    2.392691    3.193177    ( 0.0000,  0.0000,  0.0000)

Unit cell:
           periodic     x           y           z      points  spacing
  1. axis:    yes    6.360000    0.000000    0.000000    32     0.1988
  2. axis:    yes    0.000000    6.360000    0.000000    32     0.1988
  3. axis:    yes    0.000000    0.000000    6.360000    32     0.1988

  Lengths:   6.360000   6.360000   6.360000
  Angles:   90.000000  90.000000  90.000000

Effective grid spacing dv^(1/3) = 0.1988

     iter     time        total  log10-change:
                         energy   eigst   dens  force
iter:   1 02:50:38   -50.079193   -2.84
iter:   2 02:50:51   -50.077493   -4.35  -2.56
iter:   3 02:51:03   -50.072655   -4.57  -2.61
iter:   4 02:51:17   -50.072702   -4.86  -2.76
iter:   5 02:51:31   -50.072564   -4.38  -2.95
iter:   6 02:51:44   -50.072198   -5.49  -3.25
iter:   7 02:51:57   -50.072381   -5.44  -3.46
iter:   8 02:52:11   -50.072363   -5.93  -3.65
iter:   9 02:52:23   -50.072347c  -6.13  -3.66
iter:  10 02:52:37   -50.072340c  -6.84  -4.02c
iter:  11 02:52:53   -50.072337c  -7.93c -4.14c
iter:  12 02:53:08   -50.072357c  -7.62c -4.19c -1.88
iter:  13 02:53:25   -50.072362c  -8.15c -4.67c -2.32c

Converged after 13 iterations.

Dipole moment: (-0.000000, -0.000000, 6.548400) |e|*Ang

Energy contributions relative to reference atoms: (reference = -1151950.372298)

Kinetic:        +53.550406
Potential:      -56.761409
External:        +0.000000
XC:             -46.627592
Entropy (-ST):   -0.067900
Local:           -0.199816
SIC:             +0.000000
--------------------------
Free energy:    -50.106312
Extrapolated:   -50.072362

Showing only first 2 kpts
 Kpt  Band  Eigenvalues  Occupancy
  0    25      0.78265    1.99708
  0    26      0.85389    1.99405
  0    27      1.96762    0.00972
  0    28      5.26121    0.00000

  1    25      0.80729    1.99626
  1    26      0.83010    1.99531
  1    27      1.96703    0.00977
  1    28      5.40928    0.00000


Fermi level: 1.43540

No gap
No difference between direct/indirect transitions

Forces in eV/Ang:
  0 Pb    0.00000    0.00000    0.02985
  1 I     0.00000    0.00000   -0.16256
  2 I     0.00000    0.00000   -0.30735
  3 I     0.00000    0.00000   -0.00004
  4 C     0.00000    0.00000    0.58647
  5 N     0.28064    0.00000    0.04192
  6 N    -0.28064    0.00000    0.04192
  7 H     0.00000    0.00000   -0.62545
  8 H     0.01460    0.21536    0.08410
  9 H     0.01460   -0.21536    0.08410
 10 H    -0.01460    0.21536    0.08410
 11 H    -0.01460   -0.21536    0.08410

System changes: positions 

Initializing position-dependent things.

Density initialized from wave functions
     .---------------.  
    /|               |  
   I |               |  
  /  |               |  
 *   |   I H         |  
 |   | H        H    |  
 |   |H N  C  NH     |  
 |   |               |  
 I   .---------------.  
 |  /               /   
 | /               /    
 |/               /     
 Pb--------------*      

Atomic positions and initial magnetic moments

Positions:
   0 Pb     0.000000    0.000000    0.010464    ( 0.0000,  0.0000,  0.0000)
   1 I      3.180000    0.000000   -0.054655    ( 0.0000,  0.0000,  0.0000)
   2 I      0.000000    3.180000   -0.098465    ( 0.0000,  0.0000,  0.0000)
   3 I      0.000000    0.000000    3.186463    ( 0.0000,  0.0000,  0.0000)
   4 C      3.180000    3.180000    3.545404    ( 0.0000,  0.0000,  0.0000)
   5 N      2.007732    3.180000    2.826334    ( 0.0000,  0.0000,  0.0000)
   6 N      4.352268    3.180000    2.826334    ( 0.0000,  0.0000,  0.0000)
   7 H      3.180000    3.180000    4.672829    ( 0.0000,  0.0000,  0.0000)
   8 H      1.427064    3.979392    3.197585    ( 0.0000,  0.0000,  0.0000)
   9 H      1.427064    2.380608    3.197585    ( 0.0000,  0.0000,  0.0000)
  10 H      4.932936    3.979392    3.197585    ( 0.0000,  0.0000,  0.0000)
  11 H      4.932936    2.380608    3.197585    ( 0.0000,  0.0000,  0.0000)

Unit cell:
           periodic     x           y           z      points  spacing
  1. axis:    yes    6.360000    0.000000    0.000000    32     0.1988
  2. axis:    yes    0.000000    6.360000    0.000000    32     0.1988
  3. axis:    yes    0.000000    0.000000    6.360000    32     0.1988

  Lengths:   6.360000   6.360000   6.360000
  Angles:   90.000000  90.000000  90.000000

Effective grid spacing dv^(1/3) = 0.1988

     iter     time        total  log10-change:
                         energy   eigst   dens  force
iter:   1 02:53:41   -50.108764   -2.77
iter:   2 02:53:54   -50.103928   -4.34  -2.40
iter:   3 02:54:08   -50.092951   -4.09  -2.48
iter:   4 02:54:21   -50.098403   -4.94  -2.72
iter:   5 02:54:34   -50.092273   -3.91  -2.68
iter:   6 02:54:48   -50.094008   -5.18  -3.08
iter:   7 02:55:01   -50.092950   -5.52  -3.21
iter:   8 02:55:13   -50.093004   -6.15  -3.53
iter:   9 02:55:26   -50.092930   -6.13  -3.57
iter:  10 02:55:39   -50.092908   -6.36  -3.89
iter:  11 02:55:55   -50.092917c  -7.51c -4.14c
iter:  12 02:56:09   -50.092960c  -7.27  -4.18c
iter:  13 02:56:24   -50.092956c  -7.82c -4.34c -2.26c

Converged after 13 iterations.

Dipole moment: (-0.000000, -0.000000, 8.280663) |e|*Ang

Energy contributions relative to reference atoms: (reference = -1151950.372298)

Kinetic:        +53.973353
Potential:      -57.156447
External:        +0.000000
XC:             -46.677843
Entropy (-ST):   -0.064533
Local:           -0.199751
SIC:             +0.000000
--------------------------
Free energy:    -50.125222
Extrapolated:   -50.092956

Showing only first 2 kpts
 Kpt  Band  Eigenvalues  Occupancy
  0    25      0.78330    1.99730
  0    26      0.84955    1.99478
  0    27      1.98147    0.00923
  0    28      5.27446    0.00000

  1    25      0.80337    1.99671
  1    26      0.83072    1.99567
  1    27      1.98126    0.00925
  1    28      5.42095    0.00000


Fermi level: 1.44408

No gap
No difference between direct/indirect transitions

Forces in eV/Ang:
  0 Pb    0.00000    0.00000    0.02621
  1 I     0.00000    0.00000   -0.16393
  2 I     0.00000    0.00000   -0.27431
  3 I     0.00000    0.00000   -0.00395
  4 C     0.00000    0.00000    0.40143
  5 N     0.07603    0.00000    0.13653
  6 N    -0.07603    0.00000    0.13653
  7 H     0.00000    0.00000   -0.49367
  8 H    -0.05493    0.02759    0.04328
  9 H    -0.05493   -0.02759    0.04328
 10 H     0.05493    0.02759    0.04328
 11 H     0.05493   -0.02759    0.04328

System changes: positions 

Initializing position-dependent things.

Density initialized from wave functions
     .---------------.  
    /|               |  
   I |               |  
  /  |               |  
 *   |   I H         |  
 |   | H        H    |  
 |   |H N  C  NH     |  
 |   |               |  
 I   .---------------.  
 |  /               /   
 | /               /    
 |/               /     
 Pb--------------*      

Atomic positions and initial magnetic moments

Positions:
   0 Pb     0.000000    0.000000    0.011813    ( 0.0000,  0.0000,  0.0000)
   1 I      3.180000    0.000000   -0.062197    ( 0.0000,  0.0000,  0.0000)
   2 I      0.000000    3.180000   -0.112921    ( 0.0000,  0.0000,  0.0000)
   3 I      0.000000    0.000000    3.186494    ( 0.0000,  0.0000,  0.0000)
   4 C      3.180000    3.180000    3.548919    ( 0.0000,  0.0000,  0.0000)
   5 N      2.009049    3.180000    2.832873    ( 0.0000,  0.0000,  0.0000)
   6 N      4.350951    3.180000    2.832873    ( 0.0000,  0.0000,  0.0000)
   7 H      3.180000    3.180000    4.663328    ( 0.0000,  0.0000,  0.0000)
   8 H      1.434524    3.986167    3.200251    ( 0.0000,  0.0000,  0.0000)
   9 H      1.434524    2.373833    3.200251    ( 0.0000,  0.0000,  0.0000)
  10 H      4.925476    3.986167    3.200251    ( 0.0000,  0.0000,  0.0000)
  11 H      4.925476    2.373833    3.200251    ( 0.0000,  0.0000,  0.0000)

Unit cell:
           periodic     x           y           z      points  spacing
  1. axis:    yes    6.360000    0.000000    0.000000    32     0.1988
  2. axis:    yes    0.000000    6.360000    0.000000    32     0.1988
  3. axis:    yes    0.000000    0.000000    6.360000    32     0.1988

  Lengths:   6.360000   6.360000   6.360000
  Angles:   90.000000  90.000000  90.000000

Effective grid spacing dv^(1/3) = 0.1988

     iter     time        total  log10-change:
                         energy   eigst   dens  force
iter:   1 02:56:41   -50.121955   -3.18
iter:   2 02:56:54   -50.115190   -4.57  -2.38
iter:   3 02:57:08   -50.100216   -3.98  -2.48
iter:   4 02:57:21   -50.105587   -5.04  -2.89
iter:   5 02:57:33   -50.099734   -4.33  -2.81
iter:   6 02:57:47   -50.102225   -5.34  -3.08
iter:   7 02:58:02   -50.100963   -5.42  -3.33
iter:   8 02:58:14   -50.101900   -6.04  -3.58
iter:   9 02:58:27   -50.101508   -6.69  -3.72
iter:  10 02:58:41   -50.101454   -6.43  -3.92
iter:  11 02:58:54   -50.101494   -7.30  -4.22c
iter:  12 02:59:09   -50.101507c  -8.09c -4.43c
iter:  13 02:59:23   -50.101509c  -8.37c -4.48c -2.40c

Converged after 13 iterations.

Dipole moment: (0.000000, -0.000000, 9.353724) |e|*Ang

Energy contributions relative to reference atoms: (reference = -1151950.372298)

Kinetic:        +54.670762
Potential:      -57.675597
External:        +0.000000
XC:             -46.863970
Entropy (-ST):   -0.064067
Local:           -0.200670
SIC:             +0.000000
--------------------------
Free energy:    -50.133543
Extrapolated:   -50.101509

Showing only first 2 kpts
 Kpt  Band  Eigenvalues  Occupancy
  0    25      0.78201    1.99730
  0    26      0.85488    1.99442
  0    27      1.98263    0.00901
  0    28      5.28102    0.00000

  1    25      0.80644    1.99656
  1    26      0.82988    1.99565
  1    27      1.98239    0.00903
  1    28      5.42732    0.00000


Fermi level: 1.44283

No gap
No difference between direct/indirect transitions

Forces in eV/Ang:
  0 Pb    0.00000    0.00000    0.02579
  1 I     0.00000    0.00000   -0.16529
  2 I     0.00000    0.00000   -0.25137
  3 I     0.00000    0.00000   -0.00778
  4 C     0.00000    0.00000    0.15829
  5 N     0.01202    0.00000    0.05810
  6 N    -0.01202    0.00000    0.05810
  7 H     0.00000    0.00000   -0.12553
  8 H    -0.09505   -0.04556    0.04684
  9 H    -0.09505    0.04556    0.04684
 10 H     0.09505   -0.04556    0.04684
 11 H     0.09505    0.04556    0.04684

System changes: positions 

Initializing position-dependent things.

Density initialized from wave functions
     .---------------.  
    /|               |  
   I |               |  
  /  |               |  
 *   |   I H         |  
 |   | H        H    |  
 |   |H N  C  NH     |  
 |   |               |  
 I   .---------------.  
 |  /               /   
 | /               /    
 |/               /     
 Pb--------------*      

Atomic positions and initial magnetic moments

Positions:
   0 Pb     0.000000    0.000000    0.012784    ( 0.0000,  0.0000,  0.0000)
   1 I      3.180000    0.000000   -0.067982    ( 0.0000,  0.0000,  0.0000)
   2 I      0.000000    3.180000   -0.122597    ( 0.0000,  0.0000,  0.0000)
   3 I      0.000000    0.000000    3.186350    ( 0.0000,  0.0000,  0.0000)
   4 C      3.180000    3.180000    3.553415    ( 0.0000,  0.0000,  0.0000)
   5 N      2.011142    3.180000    2.835328    ( 0.0000,  0.0000,  0.0000)
   6 N      4.348858    3.180000    2.835328    ( 0.0000,  0.0000,  0.0000)
   7 H      3.180000    3.180000    4.658316    ( 0.0000,  0.0000,  0.0000)
   8 H      1.434444    3.986579    3.202273    ( 0.0000,  0.0000,  0.0000)
   9 H      1.434444    2.373421    3.202273    ( 0.0000,  0.0000,  0.0000)
  10 H      4.925556    3.986579    3.202273    ( 0.0000,  0.0000,  0.0000)
  11 H      4.925556    2.373421    3.202273    ( 0.0000,  0.0000,  0.0000)

Unit cell:
           periodic     x           y           z      points  spacing
  1. axis:    yes    6.360000    0.000000    0.000000    32     0.1988
  2. axis:    yes    0.000000    6.360000    0.000000    32     0.1988
  3. axis:    yes    0.000000    0.000000    6.360000    32     0.1988

  Lengths:   6.360000   6.360000   6.360000
  Angles:   90.000000  90.000000  90.000000

Effective grid spacing dv^(1/3) = 0.1988

     iter     time        total  log10-change:
                         energy   eigst   dens  force
iter:   1 02:59:41   -50.112698   -3.74
iter:   2 02:59:54   -50.110407   -5.12  -2.75
iter:   3 03:00:06   -50.105317   -4.69  -2.86
iter:   4 03:00:20   -50.106654   -5.95  -3.28
iter:   5 03:00:33   -50.105593   -5.09  -3.34
iter:   6 03:00:47   -50.106148   -6.34  -3.58
iter:   7 03:01:00   -50.105767   -6.07  -3.68
iter:   8 03:01:12   -50.105836   -6.68  -4.04c
iter:   9 03:01:25   -50.105807   -7.13  -4.12c
iter:  10 03:01:39   -50.105805c  -6.94  -4.16c
iter:  11 03:01:54   -50.105808c  -8.39c -4.68c
iter:  12 03:02:08   -50.105810c  -8.42c -4.74c -2.80c

Converged after 12 iterations.

Dipole moment: (-0.000000, -0.000000, 10.091974) |e|*Ang

Energy contributions relative to reference atoms: (reference = -1151950.372298)

Kinetic:        +54.920048
Potential:      -57.877040
External:        +0.000000
XC:             -46.919699
Entropy (-ST):   -0.062982
Local:           -0.197628
SIC:             +0.000000
--------------------------
Free energy:    -50.137301
Extrapolated:   -50.105810

Showing only first 2 kpts
 Kpt  Band  Eigenvalues  Occupancy
  0    25      0.77883    1.99739
  0    26      0.85158    1.99460
  0    27      1.98644    0.00866
  0    28      5.27825    0.00000

  1    25      0.80193    1.99671
  1    26      0.82678    1.99578
  1    27      1.98629    0.00867
  1    28      5.42442    0.00000


Fermi level: 1.44267

No gap
No difference between direct/indirect transitions

Forces in eV/Ang:
  0 Pb    0.00000    0.00000    0.02783
  1 I     0.00000    0.00000   -0.16533
  2 I     0.00000    0.00000   -0.23557
  3 I     0.00000    0.00000   -0.01104
  4 C     0.00000    0.00000   -0.11658
  5 N    -0.09047    0.00000    0.07402
  6 N     0.09047    0.00000    0.07402
  7 H     0.00000    0.00000    0.15319
  8 H    -0.07265   -0.08004    0.03435
  9 H    -0.07265    0.08004    0.03435
 10 H     0.07265   -0.08004    0.03435
 11 H     0.07265    0.08004    0.03435

System changes: positions 

Initializing position-dependent things.

Density initialized from wave functions
     .---------------.  
    /|               |  
   I |               |  
  /  |               |  
 *   |   I H         |  
 |   | H        H    |  
 |   |H N  C  NH     |  
 |   |               |  
 I   .---------------.  
 |  /               /   
 | /               /    
 |/               /     
 Pb--------------*      

Atomic positions and initial magnetic moments

Positions:
   0 Pb     0.000000    0.000000    0.014203    ( 0.0000,  0.0000,  0.0000)
   1 I      3.180000    0.000000   -0.076467    ( 0.0000,  0.0000,  0.0000)
   2 I      0.000000    3.180000   -0.135770    ( 0.0000,  0.0000,  0.0000)
   3 I      0.000000    0.000000    3.185947    ( 0.0000,  0.0000,  0.0000)
   4 C      3.180000    3.180000    3.556347    ( 0.0000,  0.0000,  0.0000)
   5 N      2.010774    3.180000    2.839528    ( 0.0000,  0.0000,  0.0000)
   6 N      4.349226    3.180000    2.839528    ( 0.0000,  0.0000,  0.0000)
   7 H      3.180000    3.180000    4.654632    ( 0.0000,  0.0000,  0.0000)
   8 H      1.431720    3.986089    3.204727    ( 0.0000,  0.0000,  0.0000)
   9 H      1.431720    2.373911    3.204727    ( 0.0000,  0.0000,  0.0000)
  10 H      4.928280    3.986089    3.204727    ( 0.0000,  0.0000,  0.0000)
  11 H      4.928280    2.373911    3.204727    ( 0.0000,  0.0000,  0.0000)

Unit cell:
           periodic     x           y           z      points  spacing
  1. axis:    yes    6.360000    0.000000    0.000000    32     0.1988
  2. axis:    yes    0.000000    6.360000    0.000000    32     0.1988
  3. axis:    yes    0.000000    0.000000    6.360000    32     0.1988

  Lengths:   6.360000   6.360000   6.360000
  Angles:   90.000000  90.000000  90.000000

Effective grid spacing dv^(1/3) = 0.1988

     iter     time        total  log10-change:
                         energy   eigst   dens  force
iter:   1 03:02:25   -50.115943   -3.74
iter:   2 03:02:38   -50.114240   -5.12  -2.80
iter:   3 03:02:51   -50.110377   -4.98  -2.90
iter:   4 03:03:04   -50.111295   -6.26  -3.29
iter:   5 03:03:17   -50.110648   -5.39  -3.33
iter:   6 03:03:30   -50.110953   -6.60  -3.64
iter:   7 03:03:42   -50.110663   -6.21  -3.72
iter:   8 03:03:54   -50.110737   -6.62  -4.06c
iter:   9 03:04:07   -50.110713   -7.33  -4.12c
iter:  10 03:04:21   -50.110717c  -7.17  -4.24c
iter:  11 03:04:36   -50.110720c  -8.70c -4.75c
iter:  12 03:04:50   -50.110721c  -8.88c -4.77c -2.80c

Converged after 12 iterations.

Dipole moment: (-0.000000, -0.000000, 11.096719) |e|*Ang

Energy contributions relative to reference atoms: (reference = -1151950.372298)

Kinetic:        +55.076636
Potential:      -57.986089
External:        +0.000000
XC:             -46.972205
Entropy (-ST):   -0.062393
Local:           -0.197866
SIC:             +0.000000
--------------------------
Free energy:    -50.141917
Extrapolated:   -50.110721

Showing only first 2 kpts
 Kpt  Band  Eigenvalues  Occupancy
  0    25      0.77366    1.99744
  0    26      0.85032    1.99450
  0    27      1.98736    0.00833
  0    28      5.27936    0.00000

  1    25      0.79910    1.99670
  1    26      0.82176    1.99587
  1    27      1.98709    0.00836
  1    28      5.42474    0.00000


Fermi level: 1.43972

No gap
No difference between direct/indirect transitions

Forces in eV/Ang:
  0 Pb    0.00000    0.00000    0.02331
  1 I     0.00000    0.00000   -0.16513
  2 I     0.00000    0.00000   -0.21784
  3 I     0.00000    0.00000   -0.01128
  4 C     0.00000    0.00000   -0.27021
  5 N    -0.12049    0.00000    0.03574
  6 N     0.12049    0.00000    0.03574
  7 H     0.00000    0.00000    0.35765
  8 H    -0.04951   -0.08320    0.03670
  9 H    -0.04951    0.08320    0.03670
 10 H     0.04951   -0.08320    0.03670
 11 H     0.04951    0.08320    0.03670

System changes: positions 

Initializing position-dependent things.

Density initialized from wave functions
     .---------------.  
    /|               |  
   I |               |  
  /  |               |  
 *   |   I H         |  
 |   | H        H    |  
 |   |H N  C  NH     |  
 |   |               |  
 I   .---------------.  
 |  /               /   
 | /               /    
 |/               /     
 Pb--------------*      

Atomic positions and initial magnetic moments

Positions:
   0 Pb     0.000000    0.000000    0.019224    ( 0.0000,  0.0000,  0.0000)
   1 I      3.180000    0.000000   -0.107529    ( 0.0000,  0.0000,  0.0000)
   2 I      0.000000    3.180000   -0.183753    ( 0.0000,  0.0000,  0.0000)
   3 I      0.000000    0.000000    3.184624    ( 0.0000,  0.0000,  0.0000)
   4 C      3.180000    3.180000    3.565698    ( 0.0000,  0.0000,  0.0000)
   5 N      2.010608    3.180000    2.849389    ( 0.0000,  0.0000,  0.0000)
   6 N      4.349392    3.180000    2.849389    ( 0.0000,  0.0000,  0.0000)
   7 H      3.180000    3.180000    4.654111    ( 0.0000,  0.0000,  0.0000)
   8 H      1.425247    3.983350    3.213508    ( 0.0000,  0.0000,  0.0000)
   9 H      1.425247    2.376650    3.213508    ( 0.0000,  0.0000,  0.0000)
  10 H      4.934753    3.983350    3.213508    ( 0.0000,  0.0000,  0.0000)
  11 H      4.934753    2.376650    3.213508    ( 0.0000,  0.0000,  0.0000)

Unit cell:
           periodic     x           y           z      points  spacing
  1. axis:    yes    6.360000    0.000000    0.000000    32     0.1988
  2. axis:    yes    0.000000    6.360000    0.000000    32     0.1988
  3. axis:    yes    0.000000    0.000000    6.360000    32     0.1988

  Lengths:   6.360000   6.360000   6.360000
  Angles:   90.000000  90.000000  90.000000

Effective grid spacing dv^(1/3) = 0.1988

     iter     time        total  log10-change:
                         energy   eigst   dens  force
iter:   1 03:05:08   -50.134382   -2.84
iter:   2 03:05:21   -50.131639   -4.22  -2.52
iter:   3 03:05:35   -50.125014   -4.48  -2.59
iter:   4 03:05:48   -50.127198   -5.47  -2.90
iter:   5 03:06:02   -50.125537   -4.71  -2.89
iter:   6 03:06:16   -50.125798   -5.90  -3.26
iter:   7 03:06:29   -50.125319   -5.62  -3.35
iter:   8 03:06:42   -50.125373   -6.26  -3.72
iter:   9 03:06:55   -50.125436   -6.63  -3.74
iter:  10 03:07:08   -50.125420   -6.66  -3.90
iter:  11 03:07:24   -50.125426c  -8.10c -4.35c
iter:  12 03:07:39   -50.125435c  -8.04c -4.37c -2.17c

Converged after 12 iterations.

Dipole moment: (-0.000000, -0.000000, 14.469266) |e|*Ang

Energy contributions relative to reference atoms: (reference = -1151950.372298)

Kinetic:        +55.186960
Potential:      -58.066570
External:        +0.000000
XC:             -47.018252
Entropy (-ST):   -0.059282
Local:           -0.197932
SIC:             +0.000000
--------------------------
Free energy:    -50.155076
Extrapolated:   -50.125435

Showing only first 2 kpts
 Kpt  Band  Eigenvalues  Occupancy
  0    25      0.75765    1.99769
  0    26      0.83967    1.99476
  0    27      1.99474    0.00730
  0    28      5.28705    0.00000

  1    25      0.78558    1.99695
  1    26      0.80566    1.99627
  1    27      1.99418    0.00734
  1    28      5.42817    0.00000


Fermi level: 1.43386

No gap
No difference between direct/indirect transitions

Forces in eV/Ang:
  0 Pb    0.00000    0.00000    0.01718
  1 I     0.00000    0.00000   -0.16314
  2 I     0.00000    0.00000   -0.15633
  3 I     0.00000    0.00000   -0.01857
  4 C     0.00000    0.00000   -0.54618
  5 N    -0.18982    0.00000   -0.00717
  6 N     0.18982    0.00000   -0.00717
  7 H     0.00000    0.00000    0.67391
  8 H     0.01017   -0.08386    0.03587
  9 H     0.01017    0.08386    0.03587
 10 H    -0.01017   -0.08386    0.03587
 11 H    -0.01017    0.08386    0.03587

System changes: positions 

Initializing position-dependent things.

Density initialized from wave functions
     .---------------.  
    /|               |  
   I |               |  
  /  |               |  
 *   |   I H         |  
 |   | H   C    H    |  
 |   |H N     NH     |  
 |   |               |  
 I   .---------------.  
 |  /               /   
 | /               /    
 |/               /     
 Pb--------------*      

Atomic positions and initial magnetic moments

Positions:
   0 Pb     0.000000    0.000000    0.028474    ( 0.0000,  0.0000,  0.0000)
   1 I      3.180000    0.000000   -0.165543    ( 0.0000,  0.0000,  0.0000)
   2 I      0.000000    3.180000   -0.272471    ( 0.0000,  0.0000,  0.0000)
   3 I      0.000000    0.000000    3.182088    ( 0.0000,  0.0000,  0.0000)
   4 C      3.180000    3.180000    3.579440    ( 0.0000,  0.0000,  0.0000)
   5 N      2.009324    3.180000    2.864537    ( 0.0000,  0.0000,  0.0000)
   6 N      4.350676    3.180000    2.864537    ( 0.0000,  0.0000,  0.0000)
   7 H      3.180000    3.180000    4.664151    ( 0.0000,  0.0000,  0.0000)
   8 H      1.418271    3.979332    3.229561    ( 0.0000,  0.0000,  0.0000)
   9 H      1.418271    2.380668    3.229561    ( 0.0000,  0.0000,  0.0000)
  10 H      4.941729    3.979332    3.229561    ( 0.0000,  0.0000,  0.0000)
  11 H      4.941729    2.380668    3.229561    ( 0.0000,  0.0000,  0.0000)

Unit cell:
           periodic     x           y           z      points  spacing
  1. axis:    yes    6.360000    0.000000    0.000000    32     0.1988
  2. axis:    yes    0.000000    6.360000    0.000000    32     0.1988
  3. axis:    yes    0.000000    0.000000    6.360000    32     0.1988

  Lengths:   6.360000   6.360000   6.360000
  Angles:   90.000000  90.000000  90.000000

Effective grid spacing dv^(1/3) = 0.1988

     iter     time        total  log10-change:
                         energy   eigst   dens  force
iter:   1 03:07:56   -50.156458   -2.40
iter:   2 03:08:09   -50.154323   -3.76  -2.43
iter:   3 03:08:22   -50.148141   -4.38  -2.48
iter:   4 03:08:35   -50.149317   -5.21  -2.71
iter:   5 03:08:48   -50.148366   -4.56  -2.79
iter:   6 03:09:02   -50.147990   -5.37  -3.10
iter:   7 03:09:16   -50.147903   -5.47  -3.24
iter:   8 03:09:30   -50.147990   -6.03  -3.57
iter:   9 03:09:43   -50.148062   -6.26  -3.61
iter:  10 03:09:57   -50.148043   -7.34  -4.10c
iter:  11 03:10:13   -50.148023c  -8.22c -4.16c
iter:  12 03:10:29   -50.148008c  -7.77c -4.22c -1.74
iter:  13 03:10:44   -50.148012c  -8.81c -4.61c -2.78c

Converged after 13 iterations.

Dipole moment: (0.000000, -0.000000, 19.229714) |e|*Ang

Energy contributions relative to reference atoms: (reference = -1151950.372298)

Kinetic:        +55.131718
Potential:      -58.031532
External:        +0.000000
XC:             -47.028060
Entropy (-ST):   -0.053695
Local:           -0.193290
SIC:             +0.000000
--------------------------
Free energy:    -50.174859
Extrapolated:   -50.148012

Showing only first 2 kpts
 Kpt  Band  Eigenvalues  Occupancy
  0    25      0.73661    1.99797
  0    26      0.82218    1.99524
  0    27      2.00946    0.00583
  0    28      5.31209    0.00000

  1    25      0.76537    1.99730
  1    26      0.78370    1.99676
  1    27      2.00836    0.00590
  1    28      5.44200    0.00000


Fermi level: 1.42603

No gap
No difference between direct/indirect transitions

Forces in eV/Ang:
  0 Pb    0.00000    0.00000   -0.00354
  1 I     0.00000    0.00000   -0.16085
  2 I     0.00000    0.00000   -0.04158
  3 I     0.00000    0.00000   -0.02543
  4 C     0.00000    0.00000   -0.64840
  5 N    -0.20324    0.00000   -0.05444
  6 N     0.20324    0.00000   -0.05444
  7 H     0.00000    0.00000    0.79262
  8 H     0.06325   -0.06586    0.04252
  9 H     0.06325    0.06586    0.04252
 10 H    -0.06325   -0.06586    0.04252
 11 H    -0.06325    0.06586    0.04252

System changes: positions 

Initializing position-dependent things.

Density initialized from wave functions
     .---------------.  
    /|               |  
   I |               |  
  /  |               |  
 *   |   I H         |  
 |   | H   C    H    |  
 |   |H N     NH     |  
 |   |               |  
 I   .---------------.  
 |  /               /   
 | /               /    
 |/               /     
 Pb--------------*      

Atomic positions and initial magnetic moments

Positions:
   0 Pb     0.000000    0.000000    0.039229    ( 0.0000,  0.0000,  0.0000)
   1 I      3.180000    0.000000   -0.236639    ( 0.0000,  0.0000,  0.0000)
   2 I      0.000000    3.180000   -0.378316    ( 0.0000,  0.0000,  0.0000)
   3 I      0.000000    0.000000    3.178881    ( 0.0000,  0.0000,  0.0000)
   4 C      3.180000    3.180000    3.593541    ( 0.0000,  0.0000,  0.0000)
   5 N      2.007837    3.180000    2.879094    ( 0.0000,  0.0000,  0.0000)
   6 N      4.352163    3.180000    2.879094    ( 0.0000,  0.0000,  0.0000)
   7 H      3.180000    3.180000    4.686686    ( 0.0000,  0.0000,  0.0000)
   8 H      1.415392    3.975266    3.249091    ( 0.0000,  0.0000,  0.0000)
   9 H      1.415392    2.384734    3.249091    ( 0.0000,  0.0000,  0.0000)
  10 H      4.944608    3.975266    3.249091    ( 0.0000,  0.0000,  0.0000)
  11 H      4.944608    2.384734    3.249091    ( 0.0000,  0.0000,  0.0000)

Unit cell:
           periodic     x           y           z      points  spacing
  1. axis:    yes    6.360000    0.000000    0.000000    32     0.1988
  2. axis:    yes    0.000000    6.360000    0.000000    32     0.1988
  3. axis:    yes    0.000000    0.000000    6.360000    32     0.1988

  Lengths:   6.360000   6.360000   6.360000
  Angles:   90.000000  90.000000  90.000000

Effective grid spacing dv^(1/3) = 0.1988

     iter     time        total  log10-change:
                         energy   eigst   dens  force
iter:   1 03:11:01   -50.172340   -2.28
iter:   2 03:11:14   -50.171949   -3.59  -2.44
iter:   3 03:11:27   -50.169422   -3.70  -2.46
iter:   4 03:11:41   -50.169245   -4.99  -2.84
iter:   5 03:11:54   -50.168319   -4.74  -2.87
iter:   6 03:12:08   -50.168484   -5.31  -3.18
iter:   7 03:12:21   -50.168851   -6.26  -3.36
iter:   8 03:12:34   -50.168848   -7.00  -3.58
iter:   9 03:12:47   -50.168682   -6.58  -3.69
iter:  10 03:12:59   -50.168706   -7.30  -4.03c
iter:  11 03:13:13   -50.168709c  -7.23  -4.07c
iter:  12 03:13:29   -50.168702c  -8.02c -4.23c
iter:  13 03:13:44   -50.168695c  -7.55c -4.34c -2.02c

Converged after 13 iterations.

Dipole moment: (0.000000, -0.000000, 22.191088) |e|*Ang

Energy contributions relative to reference atoms: (reference = -1151950.372298)

Kinetic:        +54.872145
Potential:      -57.851733
External:        +0.000000
XC:             -46.976959
Entropy (-ST):   -0.046442
Local:           -0.188927
SIC:             +0.000000
--------------------------
Free energy:    -50.191916
Extrapolated:   -50.168695

Showing only first 2 kpts
 Kpt  Band  Eigenvalues  Occupancy
  0    25      0.72136    1.99818
  0    26      0.80113    1.99596
  0    27      2.03265    0.00442
  0    28      5.35438    0.00000

  1    25      0.74413    1.99771
  1    26      0.76637    1.99714
  1    27      2.03098    0.00449
  1    28      5.46499    0.00000


Fermi level: 1.42137

Gap: 0.194 eV
Transition (v -> c):
  (s=0, k=63, n=26, [0.50, 0.50, 0.50]) -> (s=0, k=15, n=27, [0.00, 0.50, 0.50])
Direct/indirect transitions are different
Direct gap: 0.509 eV
Transition at: (s=0, k=60, n=26, [0.50, 0.50, 0.00])

Forces in eV/Ang:
  0 Pb    0.00000    0.00000   -0.03123
  1 I     0.00000    0.00000   -0.15896
  2 I     0.00000    0.00000    0.09840
  3 I     0.00000    0.00000   -0.03242
  4 C     0.00000    0.00000   -0.41675
  5 N    -0.13825    0.00000   -0.08182
  6 N     0.13825    0.00000   -0.08182
  7 H     0.00000    0.00000    0.50055
  8 H     0.07326   -0.03098    0.04778
  9 H     0.07326    0.03098    0.04778
 10 H    -0.07326   -0.03098    0.04778
 11 H    -0.07326    0.03098    0.04778

System changes: positions 

Initializing position-dependent things.

Density initialized from wave functions
     .---------------.  
    /|               |  
   / |               |  
  /I |               |  
 *   |   I H         |  
 |   | H   C    H    |  
 |   |H N     NH     |  
 |   |               |  
 I   .---------------.  
 |  /               /   
 | /               /    
 |/               /     
 Pb--------------*      

Atomic positions and initial magnetic moments

Positions:
   0 Pb     0.000000    0.000000    0.041687    ( 0.0000,  0.0000,  0.0000)
   1 I      3.180000    0.000000   -0.259080    ( 0.0000,  0.0000,  0.0000)
   2 I      0.000000    3.180000   -0.406601    ( 0.0000,  0.0000,  0.0000)
   3 I      0.000000    0.000000    3.177581    ( 0.0000,  0.0000,  0.0000)
   4 C      3.180000    3.180000    3.596044    ( 0.0000,  0.0000,  0.0000)
   5 N      2.007233    3.180000    2.880083    ( 0.0000,  0.0000,  0.0000)
   6 N      4.352767    3.180000    2.880083    ( 0.0000,  0.0000,  0.0000)
   7 H      3.180000    3.180000    4.700301    ( 0.0000,  0.0000,  0.0000)
   8 H      1.418219    3.974332    3.255154    ( 0.0000,  0.0000,  0.0000)
   9 H      1.418219    2.385668    3.255154    ( 0.0000,  0.0000,  0.0000)
  10 H      4.941781    3.974332    3.255154    ( 0.0000,  0.0000,  0.0000)
  11 H      4.941781    2.385668    3.255154    ( 0.0000,  0.0000,  0.0000)

Unit cell:
           periodic     x           y           z      points  spacing
  1. axis:    yes    6.360000    0.000000    0.000000    32     0.1988
  2. axis:    yes    0.000000    6.360000    0.000000    32     0.1988
  3. axis:    yes    0.000000    0.000000    6.360000    32     0.1988

  Lengths:   6.360000   6.360000   6.360000
  Angles:   90.000000  90.000000  90.000000

Effective grid spacing dv^(1/3) = 0.1988

     iter     time        total  log10-change:
                         energy   eigst   dens  force
iter:   1 03:14:01   -50.172497   -3.30
iter:   2 03:14:14   -50.173152   -4.63  -2.71
iter:   3 03:14:27   -50.175830   -4.64  -2.80
iter:   4 03:14:39   -50.175489   -5.74  -3.09
iter:   5 03:14:52   -50.175077   -4.95  -3.17
iter:   6 03:15:05   -50.175463   -6.18  -3.45
iter:   7 03:15:19   -50.175341   -5.46  -3.54
iter:   8 03:15:31   -50.175244   -6.74  -3.87
iter:   9 03:15:43   -50.175282   -6.76  -4.01c
iter:  10 03:15:57   -50.175280c  -7.23  -4.09c
iter:  11 03:16:12   -50.175279c  -8.67c -4.53c
iter:  12 03:16:27   -50.175275c  -7.97c -4.56c -2.13c

Converged after 12 iterations.

[...]
   2 I      0.000000    3.180000   -0.200106    ( 0.0000,  0.0000,  0.0000)
   3 I      0.000000    0.000000    2.720034    ( 0.0000,  0.0000,  0.0000)
   4 C      3.180000    3.180000    3.717227    ( 0.0000,  0.0000,  0.0000)
   5 N      2.007272    3.180000    2.994649    ( 0.0000,  0.0000,  0.0000)
   6 N      4.352728    3.180000    2.994649    ( 0.0000,  0.0000,  0.0000)
   7 H      3.180000    3.180000    4.826081    ( 0.0000,  0.0000,  0.0000)
   8 H      1.422654    3.982772    3.336730    ( 0.0000,  0.0000,  0.0000)
   9 H      1.422654    2.377228    3.336730    ( 0.0000,  0.0000,  0.0000)
  10 H      4.937346    3.982772    3.336730    ( 0.0000,  0.0000,  0.0000)
  11 H      4.937346    2.377228    3.336730    ( 0.0000,  0.0000,  0.0000)

Unit cell:
           periodic     x           y           z      points  spacing
  1. axis:    yes    6.360000    0.000000    0.000000    32     0.1988
  2. axis:    yes    0.000000    6.360000    0.000000    32     0.1988
  3. axis:    yes    0.000000    0.000000    6.360000    32     0.1988

  Lengths:   6.360000   6.360000   6.360000
  Angles:   90.000000  90.000000  90.000000

Effective grid spacing dv^(1/3) = 0.1988

     iter     time        total  log10-change:
                         energy   eigst   dens  force
iter:   1 04:25:21   -50.303246   -1.75
iter:   2 04:25:34   -50.298947   -3.03  -2.07
iter:   3 04:25:46   -50.281690   -2.87  -2.11
iter:   4 04:25:59   -50.281070   -4.16  -2.54
iter:   5 04:26:11   -50.279477   -4.35  -2.59
iter:   6 04:26:24   -50.279764   -4.47  -2.81
iter:   7 04:26:37   -50.279742   -4.84  -2.96
iter:   8 04:26:51   -50.279743c  -5.85  -3.31
iter:   9 04:27:04   -50.279693c  -5.83  -3.37
iter:  10 04:27:17   -50.279740c  -6.14  -3.61
iter:  11 04:27:29   -50.279693c  -7.13  -3.86
iter:  12 04:27:42   -50.279684   -7.05  -3.94
iter:  13 04:27:57   -50.279712c  -7.54c -4.09c
iter:  14 04:28:12   -50.279703c  -8.09c -4.21c -2.24c

Converged after 14 iterations.

Dipole moment: (-0.000000, -0.000000, 24.100279) |e|*Ang

Energy contributions relative to reference atoms: (reference = -1151950.372298)

Kinetic:        +54.618201
Potential:      -57.593136
External:        +0.000000
XC:             -47.099106
Entropy (-ST):   -0.017740
Local:           -0.196792
SIC:             +0.000000
--------------------------
Free energy:    -50.288573
Extrapolated:   -50.279703

Showing only first 2 kpts
 Kpt  Band  Eigenvalues  Occupancy
  0    25      0.65889    1.99936
  0    26      0.83678    1.99623
  0    27      2.27754    0.00059
  0    28      5.33663    0.00000

  1    25      0.71998    1.99883
  1    26      0.75952    1.99826
  1    27      2.28262    0.00056
  1    28      5.43387    0.00000


Fermi level: 1.46403

Gap: 0.333 eV
Transition (v -> c):
  (s=0, k=63, n=26, [0.50, 0.50, 0.50]) -> (s=0, k=15, n=27, [0.00, 0.50, 0.50])
Direct/indirect transitions are different
Direct gap: 0.550 eV
Transition at: (s=0, k=15, n=26, [0.00, 0.50, 0.50])

Forces in eV/Ang:
  0 Pb    0.00000    0.00000   -0.24294
  1 I     0.00000    0.00000   -0.04062
  2 I     0.00000    0.00000   -0.06754
  3 I     0.00000    0.00000    0.36912
  4 C     0.00000    0.00000    0.25536
  5 N    -0.10782    0.00000   -0.16519
  6 N     0.10782    0.00000   -0.16519
  7 H     0.00000    0.00000   -0.09033
  8 H    -0.00397    0.00366    0.02024
  9 H    -0.00397   -0.00366    0.02024
 10 H     0.00397    0.00366    0.02024
 11 H     0.00397   -0.00366    0.02024

System changes: positions 

Initializing position-dependent things.

Density initialized from wave functions
     .---------------.  
    /|               |  
   I |               |  
  /  |               |  
 Pb  |     H         |  
 |   | H I C    H    |  
 |   |H N     NH     |  
 |   |               |  
 I   .---------------.  
 |  /               /   
 | /               /    
 |/               /     
 *---------------*      

Atomic positions and initial magnetic moments

Positions:
   0 Pb     0.000000    0.000000   -0.231777    ( 0.0000,  0.0000,  0.0000)
   1 I      3.180000    0.000000   -1.018349    ( 0.0000,  0.0000,  0.0000)
   2 I      0.000000    3.180000   -0.206081    ( 0.0000,  0.0000,  0.0000)
   3 I      0.000000    0.000000    2.915264    ( 0.0000,  0.0000,  0.0000)
   4 C      3.180000    3.180000    3.727551    ( 0.0000,  0.0000,  0.0000)
   5 N      2.004034    3.180000    3.004376    ( 0.0000,  0.0000,  0.0000)
   6 N      4.355966    3.180000    3.004376    ( 0.0000,  0.0000,  0.0000)
   7 H      3.180000    3.180000    4.833476    ( 0.0000,  0.0000,  0.0000)
   8 H      1.422825    3.979576    3.366133    ( 0.0000,  0.0000,  0.0000)
   9 H      1.422825    2.380424    3.366133    ( 0.0000,  0.0000,  0.0000)
  10 H      4.937175    3.979576    3.366133    ( 0.0000,  0.0000,  0.0000)
  11 H      4.937175    2.380424    3.366133    ( 0.0000,  0.0000,  0.0000)

Unit cell:
           periodic     x           y           z      points  spacing
  1. axis:    yes    6.360000    0.000000    0.000000    32     0.1988
  2. axis:    yes    0.000000    6.360000    0.000000    32     0.1988
  3. axis:    yes    0.000000    0.000000    6.360000    32     0.1988

  Lengths:   6.360000   6.360000   6.360000
  Angles:   90.000000  90.000000  90.000000

Effective grid spacing dv^(1/3) = 0.1988

     iter     time        total  log10-change:
                         energy   eigst   dens  force
iter:   1 04:28:29   -50.332101   -1.78
iter:   2 04:28:42   -50.327546   -3.08  -2.08
iter:   3 04:28:56   -50.308889   -2.86  -2.11
iter:   4 04:29:09   -50.308522   -4.20  -2.54
iter:   5 04:29:23   -50.308803   -4.28  -2.59
iter:   6 04:29:35   -50.308775   -4.49  -2.82
iter:   7 04:29:48   -50.308235   -4.94  -3.01
iter:   8 04:30:01   -50.308263   -6.06  -3.32
iter:   9 04:30:14   -50.308343   -5.90  -3.40
iter:  10 04:30:27   -50.308280   -6.30  -3.65
iter:  11 04:30:40   -50.308320   -6.73  -3.89
iter:  12 04:30:52   -50.308305c  -6.95  -4.01c
iter:  13 04:31:07   -50.308304c  -8.08c -4.47c
iter:  14 04:31:22   -50.308307c  -8.88c -4.49c -2.34c

Converged after 14 iterations.

Dipole moment: (-0.000000, -0.000000, 23.731728) |e|*Ang

Energy contributions relative to reference atoms: (reference = -1151950.372298)

Kinetic:        +53.876618
Potential:      -57.023288
External:        +0.000000
XC:             -46.952471
Entropy (-ST):   -0.015515
Local:           -0.201408
SIC:             +0.000000
--------------------------
Free energy:    -50.316064
Extrapolated:   -50.308307

Showing only first 2 kpts
 Kpt  Band  Eigenvalues  Occupancy
  0    25      0.68081    1.99926
  0    26      0.82443    1.99688
  0    27      2.31188    0.00044
  0    28      5.40196    0.00000

  1    25      0.73320    1.99875
  1    26      0.74520    1.99859
  1    27      2.31364    0.00044
  1    28      5.48230    0.00000


Fermi level: 1.47061

Gap: 0.434 eV
Transition (v -> c):
  (s=0, k=63, n=26, [0.50, 0.50, 0.50]) -> (s=0, k=15, n=27, [0.00, 0.50, 0.50])
Direct/indirect transitions are different
Direct gap: 0.534 eV
Transition at: (s=0, k=15, n=26, [0.00, 0.50, 0.50])

Forces in eV/Ang:
  0 Pb    0.00000    0.00000   -0.01504
  1 I     0.00000    0.00000    0.00215
  2 I     0.00000    0.00000   -0.00395
  3 I     0.00000    0.00000    0.00869
  4 C     0.00000    0.00000    0.00496
  5 N     0.00173    0.00000   -0.00564
  6 N    -0.00173    0.00000   -0.00564
  7 H     0.00000    0.00000   -0.00665
  8 H    -0.00035    0.00067   -0.00280
  9 H    -0.00035   -0.00067   -0.00280
 10 H     0.00035    0.00067   -0.00280
 11 H     0.00035   -0.00067   -0.00280

System changes: positions 

Initializing position-dependent things.

Density initialized from wave functions
     .---------------.  
    /|               |  
   I |               |  
  /  |               |  
 Pb  |     H         |  
 |   | H I C    H    |  
 |   |H N     NH     |  
 |   |               |  
 I   .---------------.  
 |  /               /   
 | /               /    
 |/               /     
 *---------------*      

Atomic positions and initial magnetic moments

Positions:
   0 Pb     0.000000    0.000000   -0.232189    ( 0.0000,  0.0000,  0.0000)
   1 I      3.180000    0.000000   -1.012841    ( 0.0000,  0.0000,  0.0000)
   2 I      0.000000    3.180000   -0.206847    ( 0.0000,  0.0000,  0.0000)
   3 I      0.000000    0.000000    2.916862    ( 0.0000,  0.0000,  0.0000)
   4 C      3.180000    3.180000    3.727235    ( 0.0000,  0.0000,  0.0000)
   5 N      2.004081    3.180000    3.004170    ( 0.0000,  0.0000,  0.0000)
   6 N      4.355919    3.180000    3.004170    ( 0.0000,  0.0000,  0.0000)
   7 H      3.180000    3.180000    4.833131    ( 0.0000,  0.0000,  0.0000)
   8 H      1.422860    3.979615    3.365967    ( 0.0000,  0.0000,  0.0000)
   9 H      1.422860    2.380385    3.365967    ( 0.0000,  0.0000,  0.0000)
  10 H      4.937140    3.979615    3.365967    ( 0.0000,  0.0000,  0.0000)
  11 H      4.937140    2.380385    3.365967    ( 0.0000,  0.0000,  0.0000)

Unit cell:
           periodic     x           y           z      points  spacing
  1. axis:    yes    6.360000    0.000000    0.000000    32     0.1988
  2. axis:    yes    0.000000    6.360000    0.000000    32     0.1988
  3. axis:    yes    0.000000    0.000000    6.360000    32     0.1988

  Lengths:   6.360000   6.360000   6.360000
  Angles:   90.000000  90.000000  90.000000

Effective grid spacing dv^(1/3) = 0.1988

     iter     time        total  log10-change:
                         energy   eigst   dens  force
iter:   1 04:31:40   -50.308255   -5.32
iter:   2 04:31:53   -50.308256   -6.58  -3.94
iter:   3 04:32:06   -50.308269c  -6.56  -3.97
iter:   4 04:32:22   -50.308267c  -7.97c -4.43c
iter:   5 04:32:39   -50.308259c  -7.95c -4.46c -2.00c

Converged after 5 iterations.

Dipole moment: (-0.000000, -0.000000, 23.828396) |e|*Ang

Energy contributions relative to reference atoms: (reference = -1151950.372298)

Kinetic:        +53.884642
Potential:      -57.030047
External:        +0.000000
XC:             -46.953997
Entropy (-ST):   -0.015611
Local:           -0.201051
SIC:             +0.000000
--------------------------
Free energy:    -50.316064
Extrapolated:   -50.308259

Showing only first 2 kpts
 Kpt  Band  Eigenvalues  Occupancy
  0    25      0.68066    1.99926
  0    26      0.82420    1.99687
  0    27      2.30945    0.00045
  0    28      5.41461    0.00000

  1    25      0.73312    1.99874
  1    26      0.74492    1.99858
  1    27      2.31115    0.00045
  1    28      5.49434    0.00000


Fermi level: 1.47016

Gap: 0.432 eV
Transition (v -> c):
  (s=0, k=63, n=26, [0.50, 0.50, 0.50]) -> (s=0, k=15, n=27, [0.00, 0.50, 0.50])
Direct/indirect transitions are different
Direct gap: 0.533 eV
Transition at: (s=0, k=15, n=26, [0.00, 0.50, 0.50])

Forces in eV/Ang:
  0 Pb    0.00000    0.00000   -0.01377
  1 I     0.00000    0.00000   -0.00624
  2 I     0.00000    0.00000   -0.00652
  3 I     0.00000    0.00000    0.01125
  4 C     0.00000    0.00000    0.00699
  5 N     0.00234    0.00000   -0.01304
  6 N    -0.00234    0.00000   -0.01304
  7 H     0.00000    0.00000   -0.00584
  8 H    -0.00062   -0.00023   -0.00284
  9 H    -0.00062    0.00023   -0.00284
 10 H     0.00062   -0.00023   -0.00284
 11 H     0.00062    0.00023   -0.00284

System changes: positions 

Initializing position-dependent things.

Density initialized from wave functions
     .---------------.  
    /|               |  
   I |               |  
  /  |               |  
 Pb  |     H         |  
 |   | H I C    H    |  
 |   |H N     NH     |  
 |   |               |  
 I   .---------------.  
 |  /               /   
 | /               /    
 |/               /     
 *---------------*      

Atomic positions and initial magnetic moments

Positions:
   0 Pb     0.000000    0.000000   -0.232484    ( 0.0000,  0.0000,  0.0000)
   1 I      3.180000    0.000000   -1.011728    ( 0.0000,  0.0000,  0.0000)
   2 I      0.000000    3.180000   -0.207155    ( 0.0000,  0.0000,  0.0000)
   3 I      0.000000    0.000000    2.918081    ( 0.0000,  0.0000,  0.0000)
   4 C      3.180000    3.180000    3.727179    ( 0.0000,  0.0000,  0.0000)
   5 N      2.004161    3.180000    3.003894    ( 0.0000,  0.0000,  0.0000)
   6 N      4.355839    3.180000    3.003894    ( 0.0000,  0.0000,  0.0000)
   7 H      3.180000    3.180000    4.833013    ( 0.0000,  0.0000,  0.0000)
   8 H      1.422896    3.979498    3.366047    ( 0.0000,  0.0000,  0.0000)
   9 H      1.422896    2.380502    3.366047    ( 0.0000,  0.0000,  0.0000)
  10 H      4.937104    3.979498    3.366047    ( 0.0000,  0.0000,  0.0000)
  11 H      4.937104    2.380502    3.366047    ( 0.0000,  0.0000,  0.0000)

Unit cell:
           periodic     x           y           z      points  spacing
  1. axis:    yes    6.360000    0.000000    0.000000    32     0.1988
  2. axis:    yes    0.000000    6.360000    0.000000    32     0.1988
  3. axis:    yes    0.000000    0.000000    6.360000    32     0.1988

  Lengths:   6.360000   6.360000   6.360000
  Angles:   90.000000  90.000000  90.000000

Effective grid spacing dv^(1/3) = 0.1988

     iter     time        total  log10-change:
                         energy   eigst   dens  force
iter:   1 04:32:55   -50.308253   -6.00
iter:   2 04:33:08   -50.308258   -7.24  -4.13c
iter:   3 04:33:22   -50.308291c  -7.00  -4.16c
iter:   4 04:33:38   -50.308284c  -8.45c -4.51c
iter:   5 04:33:53   -50.308278c  -8.22c -4.55c -2.15c

Converged after 5 iterations.

Dipole moment: (-0.000000, -0.000000, 23.859370) |e|*Ang

Energy contributions relative to reference atoms: (reference = -1151950.372298)

Kinetic:        +53.875039
Potential:      -57.023175
External:        +0.000000
XC:             -46.951998
Entropy (-ST):   -0.015589
Local:           -0.200350
SIC:             +0.000000
--------------------------
Free energy:    -50.316073
Extrapolated:   -50.308278

Showing only first 2 kpts
 Kpt  Band  Eigenvalues  Occupancy
  0    25      0.68060    1.99926
  0    26      0.82367    1.99689
  0    27      2.30953    0.00045
  0    28      5.41800    0.00000

  1    25      0.73301    1.99874
  1    26      0.74443    1.99859
  1    27      2.31121    0.00045
  1    28      5.49744    0.00000


Fermi level: 1.47023

Gap: 0.432 eV
Transition (v -> c):
  (s=0, k=63, n=26, [0.50, 0.50, 0.50]) -> (s=0, k=15, n=27, [0.00, 0.50, 0.50])
Direct/indirect transitions are different
Direct gap: 0.533 eV
Transition at: (s=0, k=15, n=26, [0.00, 0.50, 0.50])

Forces in eV/Ang:
  0 Pb    0.00000    0.00000   -0.00694
  1 I     0.00000    0.00000   -0.00731
  2 I     0.00000    0.00000   -0.00461
  3 I     0.00000    0.00000    0.00489
  4 C     0.00000    0.00000   -0.00066
  5 N    -0.00127    0.00000   -0.00581
  6 N     0.00127    0.00000   -0.00581
  7 H     0.00000    0.00000   -0.00373
  8 H    -0.00014   -0.00095   -0.00318
  9 H    -0.00014    0.00095   -0.00318
 10 H     0.00014   -0.00095   -0.00318
 11 H     0.00014    0.00095   -0.00318

Writing to /home/luis-ochoa/Documents/Vscode/py/dft/calculations/top8_r2scan/FAPbI3/01_relax_sym/relax_sym.gpw (mode='')

Timing:                                      incl.     excl.
-------------------------------------------------------------------
Density initialized from wave functions:    57.082    56.430   0.6% |
 Symmetrize density:                         0.652     0.652   0.0% |
Forces:                                    111.673   111.673   1.2% |
Hamiltonian:                                23.513     0.139   0.0% |
 Atomic:                                    10.805     5.505   0.1% |
  XC Correction:                             5.299     5.299   0.1% |
 Calculate atomic Hamiltonians:              3.981     3.981   0.0% |
 Communicate:                                0.162     0.162   0.0% |
 Initialize Hamiltonian:                     0.000     0.000   0.0% |
 Poisson:                                    0.130     0.130   0.0% |
 XC 3D grid:                                 8.296     8.296   0.1% |
LCAO initialization:                         5.084     0.336   0.0% |
 LCAO eigensolver:                           0.218     0.001   0.0% |
  Calculate projections:                     0.004     0.004   0.0% |
  DenseAtomicCorrection:                     0.009     0.009   0.0% |
  Distribute overlap matrix:                 0.000     0.000   0.0% |
  Orbital Layouts:                           0.006     0.006   0.0% |
  Potential matrix:                          0.195     0.195   0.0% |
  Sum over cells:                            0.004     0.004   0.0% |
 LCAO to grid:                               4.038     4.038   0.0% |
 Set positions (LCAO WFS):                   0.492     0.078   0.0% |
  Basic WFS set positions:                   0.002     0.002   0.0% |
  Basis functions set positions:             0.000     0.000   0.0% |
  P tci:                                     0.214     0.214   0.0% |
  ST tci:                                    0.179     0.179   0.0% |
  mktci:                                     0.019     0.019   0.0% |
PWDescriptor:                                0.017     0.017   0.0% |
Redistribute:                                0.296     0.296   0.0% |
SCF-cycle:                                7753.357   872.729   9.6% |---|
 Davidson:                                5744.438  1104.020  12.1% |----|
  Apply H:                                 816.660   795.039   8.7% |--|
   HMM T:                                   21.622    21.622   0.2% |
  Subspace diag:                          1133.075     1.230   0.0% |
   calc_h_matrix:                          955.781   136.233   1.5% ||
    Apply H:                               819.548   798.193   8.7% |--|
     HMM T:                                 21.355    21.355   0.2% |
   diagonalize:                              6.200     6.200   0.1% |
   rotate_psi:                             169.863   169.863   1.9% ||
  calc. matrices:                         2297.043   671.857   7.4% |--|
   Apply H:                               1625.186  1582.494  17.3% |------|
    HMM T:                                  42.693    42.693   0.5% |
  diagonalize:                              52.872    52.872   0.6% |
  rotate_psi:                              340.768   340.768   3.7% ||
 Density:                                  585.882     0.026   0.0% |
  Atomic density matrices:                  39.688    39.688   0.4% |
  Mix:                                      73.143    73.143   0.8% |
  Multipole moments:                         0.241     0.241   0.0% |
  Pseudo density:                          472.785   465.113   5.1% |-|
   Symmetrize density:                       7.672     7.672   0.1% |
 Forces:                                   249.229   249.229   2.7% ||
 Hamiltonian:                              270.883     1.677   0.0% |
  Atomic:                                  124.940    62.066   0.7% |
   XC Correction:                           62.875    62.875   0.7% |
  Calculate atomic Hamiltonians:            46.609    46.609   0.5% |
  Communicate:                               1.828     1.828   0.0% |
  Poisson:                                   1.468     1.468   0.0% |
  XC 3D grid:                               94.361    94.361   1.0% |
 Orthonormalize:                            30.197     0.108   0.0% |
  calc_s_matrix:                             5.479     5.479   0.1% |
  inverse-cholesky:                          0.154     0.154   0.0% |
  projections:                              17.559    17.559   0.2% |
  rotate_psi_s:                              6.897     6.897   0.1% |
Set symmetry:                                0.013     0.013   0.0% |
Other:                                    1182.147  1182.147  12.9% |----|
-------------------------------------------------------------------
Total:                                              9133.182 100.0%

Memory usage: 659.42 MiB
Date: Tue May 19 04:52:47 2026
