
  ___ ___ ___ _ _ _  
 |   |   |_  | | | | 
 | | | | | . | | | | 
 |__ |  _|___|_____|  25.7.0
 |___|_|             

User:   luis-ochoa@luis-pc
Date:   Wed Apr 29 16:12:36 2026
Arch:   x86_64
Pid:    15768
CWD:    /home/luis-ochoa/Documents/Vscode/py/dft-cspbi3-gpaw-main
Python: 3.12.3
gpaw:   /home/luis-ochoa/Documents/Vscode/py/dft-cspbi3-gpaw-main/.venv/lib/python3.12/site-packages/gpaw
_gpaw:  /home/luis-ochoa/Documents/Vscode/py/dft-cspbi3-gpaw-main/.venv/lib/python3.12/site-packages/
        _gpaw.cpython-312-x86_64-linux-gnu.so
ase:    /home/luis-ochoa/Documents/Vscode/py/dft-cspbi3-gpaw-main/.venv/lib/python3.12/site-packages/ase (version 3.28.0)
numpy:  /home/luis-ochoa/Documents/Vscode/py/dft-cspbi3-gpaw-main/.venv/lib/python3.12/site-packages/numpy (version 2.4.4)
scipy:  /home/luis-ochoa/Documents/Vscode/py/dft-cspbi3-gpaw-main/.venv/lib/python3.12/site-packages/scipy (version 1.17.1)
libxc:  5.2.3
units:  Angstrom and eV
cores: 7
OpenMP: False
OMP_NUM_THREADS: 1

Input parameters:
  convergence: {energy: 1e-08}
  kpts: {gamma: True,
         size: [6, 6, 6]}
  mode: {ecut: 450.00000000000006,
         name: pw}
  occupations: {name: fermi-dirac,
                width: 0.05}
  symmetry: off
  xc: PBE

System changes: positions, numbers, cell, pbc, initial_charges, initial_magmoms 

Initialize ...

species:
  Cs:
    name: Caesium
    id: fa822afd343f47335d508b9ee4f394c3
    Z: 55.0
    valence: 9
    core: 46
    charge: 0.0
    file: /home/luis-ochoa/.gpaw/gpaw-setups-24.11.0/Cs.PBE.gz
    compensation charges: {type: gauss,
                           rc: 0.33,
                           lmax: 2}
    cutoffs: {filter: 2.06,
              core: 2.51}
    projectors:
      #              energy  rcut
      - 5s(2.00)   -26.706   1.164
      - 6s(1.00)    -2.085   1.164
      - 5p(6.00)   -13.523   1.058
      -  p          13.688   1.058
      -  d           0.000   1.058
  
    # Using partial waves for Cs as LCAO basis

  Pb:
    name: Lead
    id: 66e73b13d76dc837202bcdb13fee58e6
    Z: 82.0
    valence: 14
    core: 68
    charge: 0.0
    file: /home/luis-ochoa/.gpaw/gpaw-setups-24.11.0/Pb.PBE.gz
    compensation charges: {type: gauss,
                           rc: 0.38,
                           lmax: 2}
    cutoffs: {filter: 2.36,
              core: 2.43}
    projectors:
      #              energy  rcut
      - 6s(2.00)   -11.969   1.259
      - 6p(2.00)    -3.506   1.275
      - 5d(10.00)   -21.211   1.217
      -  s          15.243   1.259
      -  p          23.705   1.275
      -  d           6.001   1.217
  
    # Using partial waves for Pb as LCAO basis

  I:
    name: Iodine
    id: 91405a398e4dfe788ff04f57531604ec
    Z: 53.0
    valence: 7
    core: 46
    charge: 0.0
    file: /home/luis-ochoa/.gpaw/gpaw-setups-24.11.0/I.PBE.gz
    compensation charges: {type: gauss,
                           rc: 0.37,
                           lmax: 2}
    cutoffs: {filter: 2.06,
              core: 2.90}
    projectors:
      #              energy  rcut
      - 5s(2.00)   -17.382   1.164
      - 5p(5.00)    -7.088   1.164
      -  s           9.829   1.164
      -  p          20.123   1.164
      -  d           0.000   1.164
  
    # Using partial waves for I as LCAO basis

Reference energy: -1359696.926849  # eV

Spin-paired calculation

Convergence criteria:
 Maximum [total energy] change in last 3 cyles: 1e-08 eV / valence electron
 Maximum integral of absolute [dens]ity change: 0.0001 electrons / valence electron
 Maximum integral of absolute [eigenst]ate change: 4e-08 eV^2 / valence electron
 Maximum number of scf [iter]ations: 333
 (Square brackets indicate name in SCF output, whereas a 'c' in
 the SCF output indicates the quantity has converged.)

Symmetries present (total): 1

  ( 1  0  0)
  ( 0  1  0)
  ( 0  0  1)

216 k-points: 6 x 6 x 6 Monkhorst-Pack grid + [1/12,1/12,1/12]
216 k-points in the irreducible part of the Brillouin zone
       k-points in crystal coordinates                weights
   0:    -0.33333333   -0.33333333   -0.33333333          1/216
   1:    -0.33333333   -0.33333333   -0.16666667          1/216
   2:    -0.33333333   -0.33333333    0.00000000          1/216
   3:    -0.33333333   -0.33333333    0.16666667          1/216
   4:    -0.33333333   -0.33333333    0.33333333          1/216
   5:    -0.33333333   -0.33333333    0.50000000          1/216
   6:    -0.33333333   -0.16666667   -0.33333333          1/216
   7:    -0.33333333   -0.16666667   -0.16666667          1/216
   8:    -0.33333333   -0.16666667    0.00000000          1/216
   9:    -0.33333333   -0.16666667    0.16666667          1/216
          ...
 215:     0.50000000    0.50000000    0.50000000          1/216

Wave functions: Plane wave expansion
  Cutoff energy: 450.000 eV
  Number of coefficients (min, max): 5040, 5141
  Pulay-stress correction: 0.000000 eV/Ang^3 (de/decut=0.000000)
  Using Numpy's FFT
  ScaLapack parameters: grid=1x1, blocksize=None
  Wavefunction extrapolation:
    Improved wavefunction reuse through dual PAW basis 

Occupation numbers: Fermi-Dirac:
  width: 0.0500  # eV
 

Eigensolver
   Davidson(niter=2) 

Densities:
  Coarse grid: 32*32*32 grid
  Fine grid: 64*64*64 grid
  Total Charge: 0.000000 

Density mixing:
  Method: separate
  Backend: pulay
  Linear mixing parameter: 0.05
  old densities: 5
  Damping of long wavelength oscillations: 50 

Hamiltonian:
  XC and Coulomb potentials evaluated on a 64*64*64 grid
  Using the PBE Exchange-Correlation functional
  External potential:
    NoExternalPotential
 

XC parameters: PBE with 2 nearest neighbor stencil

Memory estimate:
  Process memory now: 524.65 MiB
  Calculator: 119.09 MiB
    Density: 17.18 MiB
      Arrays: 6.50 MiB
      Localized functions: 8.18 MiB
      Mixer: 2.50 MiB
    Hamiltonian: 4.47 MiB
      Arrays: 4.25 MiB
      XC: 0.00 MiB
      Poisson: 0.00 MiB
      vbar: 0.22 MiB
    Wavefunctions: 97.43 MiB
      Arrays psit_nG: 61.19 MiB
      Eigensolver: 2.54 MiB
      Projections: 0.83 MiB
      Projectors: 29.27 MiB
      PW-descriptor: 3.60 MiB

Total number of cores used: 7
Parallelization over k-points: 7

Number of atoms: 5
Number of atomic orbitals: 26
Number of bands in calculation: 26
Number of valence electrons: 44
Bands to converge: occupied

... initialized

Initializing position-dependent things.

Density initialized from atomic densities
Creating initial wave functions:
  26 bands from LCAO basis set

     .--------------.  
    /|              |  
   / |     I        |  
  /  |              |  
 *   |       I      |  
 |   |              |  
 | I |     Pb       |  
 |   |              |  
 |   .--------------.  
 |  /              /   
 | /              /    
 |/              /     
 *--------------Cs     

Atomic positions and initial magnetic moments

Positions:
   0 Cs    -0.010308    0.014964    0.047633    ( 0.0000,  0.0000,  0.0000)
   1 Pb     3.100468    3.084770    3.010567    ( 0.0000,  0.0000,  0.0000)
   2 I      3.135286   -0.003409    3.061769    ( 0.0000,  0.0000,  0.0000)
   3 I      0.014638    3.094558    3.064371    ( 0.0000,  0.0000,  0.0000)
   4 I      3.091484    3.093010   -0.067117    ( 0.0000,  0.0000,  0.0000)

Unit cell:
           periodic     x           y           z      points  spacing
  1. axis:    yes    6.180000    0.000000    0.000000    32     0.1931
  2. axis:    yes    0.000000    6.180000    0.000000    32     0.1931
  3. axis:    yes    0.000000    0.000000    6.180000    32     0.1931

  Lengths:   6.180000   6.180000   6.180000
  Angles:   90.000000  90.000000  90.000000

Effective grid spacing dv^(1/3) = 0.1931

     iter     time        total  log10-change:
                         energy   eigst   dens
iter:   1 16:12:54   -14.364610
iter:   2 16:13:06   -14.321877   -1.36  -1.34
iter:   3 16:13:17   -14.113310   -2.11  -1.39
iter:   4 16:13:28   -14.071715   -1.96  -1.56
iter:   5 16:13:40   -14.052995   -3.02  -1.79
iter:   6 16:13:51   -14.054433   -4.15  -2.28
iter:   7 16:14:03   -14.052430   -3.87  -2.43
iter:   8 16:14:14   -14.052581   -4.35  -2.58
iter:   9 16:14:26   -14.052543   -5.51  -3.15
iter:  10 16:14:37   -14.052556   -5.76  -3.23
iter:  11 16:14:49   -14.052560   -6.14  -3.12
iter:  12 16:15:00   -14.052557   -5.60  -3.22
iter:  13 16:15:12   -14.052559   -5.43  -3.30
iter:  14 16:15:23   -14.052551   -5.81  -3.43
iter:  15 16:15:35   -14.052546   -6.92  -3.69
iter:  16 16:15:46   -14.052543   -6.73  -3.78
iter:  17 16:15:58   -14.052542   -7.23  -3.90
iter:  18 16:16:09   -14.052540   -6.89  -3.93
iter:  19 16:16:21   -14.052541   -7.95c -4.08c
iter:  20 16:16:32   -14.052542   -7.97c -4.10c
iter:  21 16:16:44   -14.052542   -8.23c -4.21c
iter:  22 16:16:55   -14.052542c  -7.48c -4.26c

Converged after 22 iterations.

Dipole moment: (-0.044466, -0.930119, 0.112666) |e|*Ang

Energy contributions relative to reference atoms: (reference = -1359696.926849)

Kinetic:        +38.325404
Potential:      -37.009152
External:        +0.000000
XC:             -15.267048
Entropy (-ST):   -0.000000
Local:           -0.101745
SIC:             +0.000000
--------------------------
Free energy:    -14.052542
Extrapolated:   -14.052542

Showing only first 2 kpts
 Kpt  Band  Eigenvalues  Occupancy
  0    20      1.82774    2.00000
  0    21      1.88068    2.00000
  0    22      5.53859    0.00000
  0    23      5.58136    0.00000

  1    20      1.80641    2.00000
  1    21      1.84441    2.00000
  1    22      5.75047    0.00000
  1    23      5.85698    0.00000


Fermi level: 3.71392

Gap: 1.099 eV
Transition (v -> c):
  (s=0, k=215, n=21, [0.50, 0.50, 0.50]) -> (s=0, k=215, n=22, [0.50, 0.50, 0.50])
No difference between direct/indirect transitions
Timing:                              incl.     excl.
-----------------------------------------------------------
Hamiltonian:                         0.188     0.002   0.0% |
 Atomic:                             0.059     0.059   0.0% |
  XC Correction:                     0.000     0.000   0.0% |
 Calculate atomic Hamiltonians:      0.012     0.012   0.0% |
 Communicate:                        0.000     0.000   0.0% |
 Initialize Hamiltonian:             0.000     0.000   0.0% |
 Poisson:                            0.003     0.003   0.0% |
 XC 3D grid:                         0.113     0.113   0.0% |
LCAO initialization:                 6.520     0.204   0.1% |
 LCAO eigensolver:                   0.125     0.001   0.0% |
  Calculate projections:             0.005     0.005   0.0% |
  DenseAtomicCorrection:             0.012     0.012   0.0% |
  Distribute overlap matrix:         0.001     0.001   0.0% |
  Orbital Layouts:                   0.010     0.010   0.0% |
  Potential matrix:                  0.089     0.089   0.0% |
  Sum over cells:                    0.007     0.007   0.0% |
 LCAO to grid:                       5.859     5.859   2.3% ||
 Set positions (LCAO WFS):           0.332     0.046   0.0% |
  Basic WFS set positions:           0.000     0.000   0.0% |
  Basis functions set positions:     0.000     0.000   0.0% |
  P tci:                             0.199     0.199   0.1% |
  ST tci:                            0.079     0.079   0.0% |
  mktci:                             0.008     0.008   0.0% |
PWDescriptor:                        0.036     0.036   0.0% |
SCF-cycle:                         252.385    14.450   5.6% |-|
 Davidson:                         214.205    32.899  12.7% |----|
  Apply H:                          34.270    33.476  12.9% |----|
   HMM T:                            0.794     0.794   0.3% |
  Subspace diag:                    44.372     0.077   0.0% |
   calc_h_matrix:                   38.532     4.319   1.7% ||
    Apply H:                        34.213    33.421  12.9% |----|
     HMM T:                          0.792     0.792   0.3% |
   diagonalize:                      0.264     0.264   0.1% |
   rotate_psi:                       5.500     5.500   2.1% ||
  calc. matrices:                   89.986    21.559   8.3% |--|
   Apply H:                         68.427    66.847  25.7% |---------|
    HMM T:                           1.579     1.579   0.6% |
  diagonalize:                       1.705     1.705   0.7% |
  rotate_psi:                       10.973    10.973   4.2% |-|
 Density:                           19.087     0.001   0.0% |
  Atomic density matrices:           0.120     0.120   0.0% |
  Mix:                               0.899     0.899   0.3% |
  Multipole moments:                 0.004     0.004   0.0% |
  Pseudo density:                   18.064    18.064   7.0% |--|
   Symmetrize density:               0.000     0.000   0.0% |
 Hamiltonian:                        4.118     0.032   0.0% |
  Atomic:                            1.233     1.233   0.5% |
   XC Correction:                    0.000     0.000   0.0% |
  Calculate atomic Hamiltonians:     0.490     0.490   0.2% |
  Communicate:                       0.001     0.001   0.0% |
  Poisson:                           0.037     0.037   0.0% |
  XC 3D grid:                        2.324     2.324   0.9% |
 Orthonormalize:                     0.525     0.004   0.0% |
  calc_s_matrix:                     0.102     0.102   0.0% |
  inverse-cholesky:                  0.005     0.005   0.0% |
  projections:                       0.282     0.282   0.1% |
  rotate_psi_s:                      0.132     0.132   0.1% |
Set symmetry:                        0.000     0.000   0.0% |
Other:                               0.686     0.686   0.3% |
-----------------------------------------------------------
Total:                                       259.815 100.0%

Memory usage: 530.11 MiB
Date: Wed Apr 29 16:16:55 2026
