
  ___ ___ ___ _ _ _  
 |   |   |_  | | | | 
 | | | | | . | | | | 
 |__ |  _|___|_____|  25.7.0
 |___|_|             

User:   luis-ochoa@luis-pc
Date:   Wed Apr 29 16:08:46 2026
Arch:   x86_64
Pid:    15768
CWD:    /home/luis-ochoa/Documents/Vscode/py/dft-cspbi3-gpaw-main
Python: 3.12.3
gpaw:   /home/luis-ochoa/Documents/Vscode/py/dft-cspbi3-gpaw-main/.venv/lib/python3.12/site-packages/gpaw
_gpaw:  /home/luis-ochoa/Documents/Vscode/py/dft-cspbi3-gpaw-main/.venv/lib/python3.12/site-packages/
        _gpaw.cpython-312-x86_64-linux-gnu.so
ase:    /home/luis-ochoa/Documents/Vscode/py/dft-cspbi3-gpaw-main/.venv/lib/python3.12/site-packages/ase (version 3.28.0)
numpy:  /home/luis-ochoa/Documents/Vscode/py/dft-cspbi3-gpaw-main/.venv/lib/python3.12/site-packages/numpy (version 2.4.4)
scipy:  /home/luis-ochoa/Documents/Vscode/py/dft-cspbi3-gpaw-main/.venv/lib/python3.12/site-packages/scipy (version 1.17.1)
libxc:  5.2.3
units:  Angstrom and eV
cores: 7
OpenMP: False
OMP_NUM_THREADS: 1

Input parameters:
  convergence: {energy: 1e-08}
  kpts: {gamma: True,
         size: [6, 6, 6]}
  mode: {ecut: 450.00000000000006,
         name: pw}
  occupations: {name: fermi-dirac,
                width: 0.05}
  symmetry: off
  xc: PBE

System changes: positions, numbers, cell, pbc, initial_charges, initial_magmoms 

Initialize ...

species:
  Cs:
    name: Caesium
    id: fa822afd343f47335d508b9ee4f394c3
    Z: 55.0
    valence: 9
    core: 46
    charge: 0.0
    file: /home/luis-ochoa/.gpaw/gpaw-setups-24.11.0/Cs.PBE.gz
    compensation charges: {type: gauss,
                           rc: 0.33,
                           lmax: 2}
    cutoffs: {filter: 2.06,
              core: 2.51}
    projectors:
      #              energy  rcut
      - 5s(2.00)   -26.706   1.164
      - 6s(1.00)    -2.085   1.164
      - 5p(6.00)   -13.523   1.058
      -  p          13.688   1.058
      -  d           0.000   1.058
  
    # Using partial waves for Cs as LCAO basis

  Pb:
    name: Lead
    id: 66e73b13d76dc837202bcdb13fee58e6
    Z: 82.0
    valence: 14
    core: 68
    charge: 0.0
    file: /home/luis-ochoa/.gpaw/gpaw-setups-24.11.0/Pb.PBE.gz
    compensation charges: {type: gauss,
                           rc: 0.38,
                           lmax: 2}
    cutoffs: {filter: 2.36,
              core: 2.43}
    projectors:
      #              energy  rcut
      - 6s(2.00)   -11.969   1.259
      - 6p(2.00)    -3.506   1.275
      - 5d(10.00)   -21.211   1.217
      -  s          15.243   1.259
      -  p          23.705   1.275
      -  d           6.001   1.217
  
    # Using partial waves for Pb as LCAO basis

  I:
    name: Iodine
    id: 91405a398e4dfe788ff04f57531604ec
    Z: 53.0
    valence: 7
    core: 46
    charge: 0.0
    file: /home/luis-ochoa/.gpaw/gpaw-setups-24.11.0/I.PBE.gz
    compensation charges: {type: gauss,
                           rc: 0.37,
                           lmax: 2}
    cutoffs: {filter: 2.06,
              core: 2.90}
    projectors:
      #              energy  rcut
      - 5s(2.00)   -17.382   1.164
      - 5p(5.00)    -7.088   1.164
      -  s           9.829   1.164
      -  p          20.123   1.164
      -  d           0.000   1.164
  
    # Using partial waves for I as LCAO basis

Reference energy: -1359696.926849  # eV

Spin-paired calculation

Convergence criteria:
 Maximum [total energy] change in last 3 cyles: 1e-08 eV / valence electron
 Maximum integral of absolute [dens]ity change: 0.0001 electrons / valence electron
 Maximum integral of absolute [eigenst]ate change: 4e-08 eV^2 / valence electron
 Maximum number of scf [iter]ations: 333
 (Square brackets indicate name in SCF output, whereas a 'c' in
 the SCF output indicates the quantity has converged.)

Symmetries present (total): 1

  ( 1  0  0)
  ( 0  1  0)
  ( 0  0  1)

216 k-points: 6 x 6 x 6 Monkhorst-Pack grid + [1/12,1/12,1/12]
216 k-points in the irreducible part of the Brillouin zone
       k-points in crystal coordinates                weights
   0:    -0.33333333   -0.33333333   -0.33333333          1/216
   1:    -0.33333333   -0.33333333   -0.16666667          1/216
   2:    -0.33333333   -0.33333333    0.00000000          1/216
   3:    -0.33333333   -0.33333333    0.16666667          1/216
   4:    -0.33333333   -0.33333333    0.33333333          1/216
   5:    -0.33333333   -0.33333333    0.50000000          1/216
   6:    -0.33333333   -0.16666667   -0.33333333          1/216
   7:    -0.33333333   -0.16666667   -0.16666667          1/216
   8:    -0.33333333   -0.16666667    0.00000000          1/216
   9:    -0.33333333   -0.16666667    0.16666667          1/216
          ...
 215:     0.50000000    0.50000000    0.50000000          1/216

Wave functions: Plane wave expansion
  Cutoff energy: 450.000 eV
  Number of coefficients (min, max): 5040, 5141
  Pulay-stress correction: 0.000000 eV/Ang^3 (de/decut=0.000000)
  Using Numpy's FFT
  ScaLapack parameters: grid=1x1, blocksize=None
  Wavefunction extrapolation:
    Improved wavefunction reuse through dual PAW basis 

Occupation numbers: Fermi-Dirac:
  width: 0.0500  # eV
 

Eigensolver
   Davidson(niter=2) 

Densities:
  Coarse grid: 32*32*32 grid
  Fine grid: 64*64*64 grid
  Total Charge: 0.000000 

Density mixing:
  Method: separate
  Backend: pulay
  Linear mixing parameter: 0.05
  old densities: 5
  Damping of long wavelength oscillations: 50 

Hamiltonian:
  XC and Coulomb potentials evaluated on a 64*64*64 grid
  Using the PBE Exchange-Correlation functional
  External potential:
    NoExternalPotential
 

XC parameters: PBE with 2 nearest neighbor stencil

Memory estimate:
  Process memory now: 518.60 MiB
  Calculator: 119.09 MiB
    Density: 17.18 MiB
      Arrays: 6.50 MiB
      Localized functions: 8.18 MiB
      Mixer: 2.50 MiB
    Hamiltonian: 4.47 MiB
      Arrays: 4.25 MiB
      XC: 0.00 MiB
      Poisson: 0.00 MiB
      vbar: 0.22 MiB
    Wavefunctions: 97.43 MiB
      Arrays psit_nG: 61.19 MiB
      Eigensolver: 2.54 MiB
      Projections: 0.83 MiB
      Projectors: 29.27 MiB
      PW-descriptor: 3.60 MiB

Total number of cores used: 7
Parallelization over k-points: 7

Number of atoms: 5
Number of atomic orbitals: 26
Number of bands in calculation: 26
Number of valence electrons: 44
Bands to converge: occupied

... initialized

Initializing position-dependent things.

Density initialized from atomic densities
Creating initial wave functions:
  26 bands from LCAO basis set

     .--------------.  
    /|              |  
   / |     I        |  
  /  |              |  
 *   |       I      |  
 |   |              |  
 | I |     Pb       |  
 |   |              |  
 |   .--------------.  
 |  /              /   
 | /              /    
 |/              /     
 *--------------Cs     

Atomic positions and initial magnetic moments

Positions:
   0 Cs    -0.014431    0.020950    0.066686    ( 0.0000,  0.0000,  0.0000)
   1 Pb     3.104655    3.082679    2.978793    ( 0.0000,  0.0000,  0.0000)
   2 I      3.153401   -0.004772    3.050476    ( 0.0000,  0.0000,  0.0000)
   3 I      0.020493    3.096381    3.054120    ( 0.0000,  0.0000,  0.0000)
   4 I      3.092077    3.094214   -0.093964    ( 0.0000,  0.0000,  0.0000)

Unit cell:
           periodic     x           y           z      points  spacing
  1. axis:    yes    6.180000    0.000000    0.000000    32     0.1931
  2. axis:    yes    0.000000    6.180000    0.000000    32     0.1931
  3. axis:    yes    0.000000    0.000000    6.180000    32     0.1931

  Lengths:   6.180000   6.180000   6.180000
  Angles:   90.000000  90.000000  90.000000

Effective grid spacing dv^(1/3) = 0.1931

     iter     time        total  log10-change:
                         energy   eigst   dens
iter:   1 16:09:04   -14.363140
iter:   2 16:09:16   -14.320449   -1.36  -1.34
iter:   3 16:09:27   -14.112075   -2.11  -1.39
iter:   4 16:09:39   -14.070506   -1.96  -1.56
iter:   5 16:09:51   -14.051824   -3.02  -1.79
iter:   6 16:10:03   -14.053269   -4.15  -2.27
iter:   7 16:10:14   -14.051241   -3.86  -2.43
iter:   8 16:10:26   -14.051393   -4.30  -2.58
iter:   9 16:10:38   -14.051352   -5.46  -3.13
iter:  10 16:10:50   -14.051372   -5.77  -3.20
iter:  11 16:11:02   -14.051372   -5.57  -3.10
iter:  12 16:11:13   -14.051371   -6.08  -3.27
iter:  13 16:11:25   -14.051364   -6.12  -3.29
iter:  14 16:11:37   -14.051347   -5.85  -3.37
iter:  15 16:11:49   -14.051346   -6.80  -3.65
iter:  16 16:12:00   -14.051346   -8.05c -4.11c
iter:  17 16:12:12   -14.051345   -7.16  -4.16c
iter:  18 16:12:24   -14.051345   -8.29c -4.41c
iter:  19 16:12:36   -14.051345c  -8.54c -4.54c

Converged after 19 iterations.

Dipole moment: (-0.061716, -1.300585, 0.121346) |e|*Ang

Energy contributions relative to reference atoms: (reference = -1359696.926849)

Kinetic:        +38.370586
Potential:      -37.045223
External:        +0.000000
XC:             -15.272508
Entropy (-ST):   -0.000000
Local:           -0.104200
SIC:             +0.000000
--------------------------
Free energy:    -14.051345
Extrapolated:   -14.051345

Showing only first 2 kpts
 Kpt  Band  Eigenvalues  Occupancy
  0    20      1.82481    2.00000
  0    21      1.88728    2.00000
  0    22      5.52302    0.00000
  0    23      5.58338    0.00000

  1    20      1.80421    2.00000
  1    21      1.84824    2.00000
  1    22      5.74599    0.00000
  1    23      5.85745    0.00000


Fermi level: 3.71129

Gap: 1.108 eV
Transition (v -> c):
  (s=0, k=215, n=21, [0.50, 0.50, 0.50]) -> (s=0, k=215, n=22, [0.50, 0.50, 0.50])
No difference between direct/indirect transitions
Timing:                              incl.     excl.
-----------------------------------------------------------
Hamiltonian:                         0.203     0.002   0.0% |
 Atomic:                             0.075     0.075   0.0% |
  XC Correction:                     0.000     0.000   0.0% |
 Calculate atomic Hamiltonians:      0.022     0.022   0.0% |
 Communicate:                        0.000     0.000   0.0% |
 Initialize Hamiltonian:             0.000     0.000   0.0% |
 Poisson:                            0.002     0.002   0.0% |
 XC 3D grid:                         0.101     0.101   0.0% |
LCAO initialization:                 6.527     0.204   0.1% |
 LCAO eigensolver:                   0.124     0.001   0.0% |
  Calculate projections:             0.005     0.005   0.0% |
  DenseAtomicCorrection:             0.012     0.012   0.0% |
  Distribute overlap matrix:         0.001     0.001   0.0% |
  Orbital Layouts:                   0.010     0.010   0.0% |
  Potential matrix:                  0.088     0.088   0.0% |
  Sum over cells:                    0.007     0.007   0.0% |
 LCAO to grid:                       5.921     5.921   2.6% ||
 Set positions (LCAO WFS):           0.278     0.046   0.0% |
  Basic WFS set positions:           0.000     0.000   0.0% |
  Basis functions set positions:     0.000     0.000   0.0% |
  P tci:                             0.145     0.145   0.1% |
  ST tci:                            0.079     0.079   0.0% |
  mktci:                             0.008     0.008   0.0% |
PWDescriptor:                        0.036     0.036   0.0% |
SCF-cycle:                         222.596     9.644   4.2% |-|
 Davidson:                         192.051    28.548  12.4% |----|
  Apply H:                          31.132    30.445  13.2% |----|
   HMM T:                            0.687     0.687   0.3% |
  Subspace diag:                    40.184     0.066   0.0% |
   calc_h_matrix:                   35.086     3.748   1.6% ||
    Apply H:                        31.338    30.646  13.3% |----|
     HMM T:                          0.692     0.692   0.3% |
   diagonalize:                      0.228     0.228   0.1% |
   rotate_psi:                       4.804     4.804   2.1% ||
  calc. matrices:                   81.188    18.702   8.1% |--|
   Apply H:                         62.486    61.121  26.6% |----------|
    HMM T:                           1.365     1.365   0.6% |
  diagonalize:                       1.475     1.475   0.6% |
  rotate_psi:                        9.524     9.524   4.1% |-|
 Density:                           16.895     0.000   0.0% |
  Atomic density matrices:           0.118     0.118   0.1% |
  Mix:                               0.762     0.762   0.3% |
  Multipole moments:                 0.003     0.003   0.0% |
  Pseudo density:                   16.011    16.011   7.0% |--|
   Symmetrize density:               0.000     0.000   0.0% |
 Hamiltonian:                        3.484     0.027   0.0% |
  Atomic:                            1.076     1.076   0.5% |
   XC Correction:                    0.000     0.000   0.0% |
  Calculate atomic Hamiltonians:     0.424     0.424   0.2% |
  Communicate:                       0.001     0.001   0.0% |
  Poisson:                           0.032     0.032   0.0% |
  XC 3D grid:                        1.923     1.923   0.8% |
 Orthonormalize:                     0.522     0.004   0.0% |
  calc_s_matrix:                     0.101     0.101   0.0% |
  inverse-cholesky:                  0.005     0.005   0.0% |
  projections:                       0.281     0.281   0.1% |
  rotate_psi_s:                      0.131     0.131   0.1% |
Set symmetry:                        0.000     0.000   0.0% |
Other:                               0.605     0.605   0.3% |
-----------------------------------------------------------
Total:                                       229.966 100.0%

Memory usage: 524.65 MiB
Date: Wed Apr 29 16:12:36 2026
