
  ___ ___ ___ _ _ _  
 |   |   |_  | | | | 
 | | | | | . | | | | 
 |__ |  _|___|_____|  25.7.0
 |___|_|             

User:   luis-ochoa@luis-ochoa-To-be-filled-by-O-E
Date:   Thu Apr 23 03:39:53 2026
Arch:   x86_64
Pid:    16447
CWD:    /home/luis-ochoa/Documents/Vscode/py/dft-cspbi3-gpaw-main
Python: 3.12.3
gpaw:   /home/luis-ochoa/Documents/Vscode/py/dft-cspbi3-gpaw-main/.venv/lib/python3.12/site-packages/gpaw
_gpaw:  /home/luis-ochoa/Documents/Vscode/py/dft-cspbi3-gpaw-main/.venv/lib/python3.12/site-packages/
        _gpaw.cpython-312-x86_64-linux-gnu.so
ase:    /home/luis-ochoa/Documents/Vscode/py/dft-cspbi3-gpaw-main/.venv/lib/python3.12/site-packages/ase (version 3.28.0)
numpy:  /home/luis-ochoa/Documents/Vscode/py/dft-cspbi3-gpaw-main/.venv/lib/python3.12/site-packages/numpy (version 2.4.4)
scipy:  /home/luis-ochoa/Documents/Vscode/py/dft-cspbi3-gpaw-main/.venv/lib/python3.12/site-packages/scipy (version 1.17.1)
libxc:  5.2.3
units:  Angstrom and eV
cores: 1
OpenMP: False
OMP_NUM_THREADS: 1

Reading from calculations/alpha/02_scf/scf.gpw
Read dipole, energy, free_energy, magmom, magmoms
Reading input parameters:
  convergence: {bands: occupied,
                density: 0.0001,
                eigenstates: 4e-08,
                energy: 1e-08}
  kpts: {gamma: True,
         size: [6, 6, 6]}
  mixer: {backend: pulay,
          beta: 0.05,
          method: separate,
          nmaxold: 5,
          weight: 50.0}
  mode: {ecut: 450.00000000000006,
         name: pw}
  symmetry: off
  xc: PBE

Initialize ...

species:
  Cs:
    name: Caesium
    id: fa822afd343f47335d508b9ee4f394c3
    Z: 55.0
    valence: 9
    core: 46
    charge: 0.0
    file: /home/luis-ochoa/.gpaw/gpaw-setups-24.11.0/Cs.PBE.gz
    compensation charges: {type: gauss,
                           rc: 0.33,
                           lmax: 2}
    cutoffs: {filter: 2.06,
              core: 2.51}
    projectors:
      #              energy  rcut
      - 5s(2.00)   -26.706   1.164
      - 6s(1.00)    -2.085   1.164
      - 5p(6.00)   -13.523   1.058
      -  p          13.688   1.058
      -  d           0.000   1.058
  
    # Using partial waves for Cs as LCAO basis

  Pb:
    name: Lead
    id: 66e73b13d76dc837202bcdb13fee58e6
    Z: 82.0
    valence: 14
    core: 68
    charge: 0.0
    file: /home/luis-ochoa/.gpaw/gpaw-setups-24.11.0/Pb.PBE.gz
    compensation charges: {type: gauss,
                           rc: 0.38,
                           lmax: 2}
    cutoffs: {filter: 2.36,
              core: 2.43}
    projectors:
      #              energy  rcut
      - 6s(2.00)   -11.969   1.259
      - 6p(2.00)    -3.506   1.275
      - 5d(10.00)   -21.211   1.217
      -  s          15.243   1.259
      -  p          23.705   1.275
      -  d           6.001   1.217
  
    # Using partial waves for Pb as LCAO basis

  I:
    name: Iodine
    id: 91405a398e4dfe788ff04f57531604ec
    Z: 53.0
    valence: 7
    core: 46
    charge: 0.0
    file: /home/luis-ochoa/.gpaw/gpaw-setups-24.11.0/I.PBE.gz
    compensation charges: {type: gauss,
                           rc: 0.37,
                           lmax: 2}
    cutoffs: {filter: 2.06,
              core: 2.90}
    projectors:
      #              energy  rcut
      - 5s(2.00)   -17.382   1.164
      - 5p(5.00)    -7.088   1.164
      -  s           9.829   1.164
      -  p          20.123   1.164
      -  d           0.000   1.164
  
    # Using partial waves for I as LCAO basis

Reference energy: -1359696.926849  # eV

Spin-paired calculation

Convergence criteria:
 Maximum [total energy] change in last 3 cyles: 1e-08 eV / valence electron
 Maximum integral of absolute [dens]ity change: 0.0001 electrons / valence electron
 Maximum integral of absolute [eigenst]ate change: 4e-08 eV^2 / valence electron
 Maximum number of scf [iter]ations: 333
 (Square brackets indicate name in SCF output, whereas a 'c' in
 the SCF output indicates the quantity has converged.)

Symmetries present (total): 1

  ( 1  0  0)
  ( 0  1  0)
  ( 0  0  1)

216 k-points: 6 x 6 x 6 Monkhorst-Pack grid + [1/12,1/12,1/12]
216 k-points in the irreducible part of the Brillouin zone
       k-points in crystal coordinates                weights
   0:    -0.33333333   -0.33333333   -0.33333333          1/216
   1:    -0.33333333   -0.33333333   -0.16666667          1/216
   2:    -0.33333333   -0.33333333    0.00000000          1/216
   3:    -0.33333333   -0.33333333    0.16666667          1/216
   4:    -0.33333333   -0.33333333    0.33333333          1/216
   5:    -0.33333333   -0.33333333    0.50000000          1/216
   6:    -0.33333333   -0.16666667   -0.33333333          1/216
   7:    -0.33333333   -0.16666667   -0.16666667          1/216
   8:    -0.33333333   -0.16666667    0.00000000          1/216
   9:    -0.33333333   -0.16666667    0.16666667          1/216
          ...
 215:     0.50000000    0.50000000    0.50000000          1/216

Wave functions: Plane wave expansion
  Cutoff energy: 450.000 eV
  Number of coefficients (min, max): 5040, 5141
  Pulay-stress correction: 0.000000 eV/Ang^3 (de/decut=0.000000)
  Using Numpy's FFT
  ScaLapack parameters: grid=1x1, blocksize=None
  Wavefunction extrapolation:
    Improved wavefunction reuse through dual PAW basis 

Occupation numbers: Fermi-Dirac:
  width: 0.1000  # eV
 

Eigensolver
   Davidson(niter=2) 

Densities:
  Coarse grid: 32*32*32 grid
  Fine grid: 64*64*64 grid
  Total Charge: 0.000000 

Density mixing:
  Method: separate
  Backend: pulay
  Linear mixing parameter: 0.05
  old densities: 5
  Damping of long wavelength oscillations: 50 

Hamiltonian:
  XC and Coulomb potentials evaluated on a 64*64*64 grid
  Using the PBE Exchange-Correlation functional
  External potential:
    NoExternalPotential
 

XC parameters: PBE with 2 nearest neighbor stencil

Memory estimate:
  Process memory now: 974.39 MiB
  Calculator: 699.66 MiB
    Density: 17.18 MiB
      Arrays: 6.50 MiB
      Localized functions: 8.18 MiB
      Mixer: 2.50 MiB
    Hamiltonian: 4.47 MiB
      Arrays: 4.25 MiB
      XC: 0.00 MiB
      Poisson: 0.00 MiB
      vbar: 0.22 MiB
    Wavefunctions: 678.01 MiB
      Arrays psit_nG: 440.55 MiB
      Eigensolver: 2.54 MiB
      Projections: 6.00 MiB
      Projectors: 210.73 MiB
      PW-descriptor: 18.19 MiB

Total number of cores used: 1

Number of atoms: 5
Number of atomic orbitals: 26
Number of bands in calculation: 26
Number of valence electrons: 44
Bands to converge: occupied

... initialized

Input parameters:
  convergence: {bands: -10}
  fixdensity: True
  kpts: {cell: Cell([6.18, 6.18, 6.18]),
         kpts: [[0.         0.5        0.        ]
 [0.05555556 0.5        0.05555556]
 [0.11111111 0.5        0.11111111]
 ...
 [0.42857143 0.42857143 0.42857143]
 [0.46428571 0.46428571 0.46428571]
 [0.5        0.5        0.5       ]],
         labelseq: XRMGR,
         special_points: {'G': array([0., 0., 0.]), 'M': array([0.5, 0.5, 0. ]), 'R': array([0.5, 0.5, 0.5]), 'X': array([0. , 0.5, 0. ])}}

Initialize ...

species:
  Cs:
    name: Caesium
    id: fa822afd343f47335d508b9ee4f394c3
    Z: 55.0
    valence: 9
    core: 46
    charge: 0.0
    file: /home/luis-ochoa/.gpaw/gpaw-setups-24.11.0/Cs.PBE.gz
    compensation charges: {type: gauss,
                           rc: 0.33,
                           lmax: 2}
    cutoffs: {filter: 2.06,
              core: 2.51}
    projectors:
      #              energy  rcut
      - 5s(2.00)   -26.706   1.164
      - 6s(1.00)    -2.085   1.164
      - 5p(6.00)   -13.523   1.058
      -  p          13.688   1.058
      -  d           0.000   1.058
  
    # Using partial waves for Cs as LCAO basis

  Pb:
    name: Lead
    id: 66e73b13d76dc837202bcdb13fee58e6
    Z: 82.0
    valence: 14
    core: 68
    charge: 0.0
    file: /home/luis-ochoa/.gpaw/gpaw-setups-24.11.0/Pb.PBE.gz
    compensation charges: {type: gauss,
                           rc: 0.38,
                           lmax: 2}
    cutoffs: {filter: 2.36,
              core: 2.43}
    projectors:
      #              energy  rcut
      - 6s(2.00)   -11.969   1.259
      - 6p(2.00)    -3.506   1.275
      - 5d(10.00)   -21.211   1.217
      -  s          15.243   1.259
      -  p          23.705   1.275
      -  d           6.001   1.217
  
    # Using partial waves for Pb as LCAO basis

  I:
    name: Iodine
    id: 91405a398e4dfe788ff04f57531604ec
    Z: 53.0
    valence: 7
    core: 46
    charge: 0.0
    file: /home/luis-ochoa/.gpaw/gpaw-setups-24.11.0/I.PBE.gz
    compensation charges: {type: gauss,
                           rc: 0.37,
                           lmax: 2}
    cutoffs: {filter: 2.06,
              core: 2.90}
    projectors:
      #              energy  rcut
      - 5s(2.00)   -17.382   1.164
      - 5p(5.00)    -7.088   1.164
      -  s           9.829   1.164
      -  p          20.123   1.164
      -  d           0.000   1.164
  
    # Using partial waves for I as LCAO basis

Reference energy: -1359696.926849  # eV

Spin-paired calculation

Convergence criteria:
 Maximum [total energy] change in last 3 cyles: 0.0005 eV / valence electron
 Maximum integral of absolute [dens]ity change: 0.0001 electrons / valence electron
 Maximum integral of absolute [eigenst]ate change: 4e-08 eV^2 / valence electron
 Maximum number of scf [iter]ations: 333
 (Square brackets indicate name in SCF output, whereas a 'c' in
 the SCF output indicates the quantity has converged.)

Symmetries present (total): 1

  ( 1  0  0)
  ( 0  1  0)
  ( 0  0  1)

40 k-points
40 k-points in the irreducible part of the Brillouin zone
       k-points in crystal coordinates                weights
   0:     0.00000000    0.50000000    0.00000000       0.02500000
   1:     0.05555556    0.50000000    0.05555556       0.02500000
   2:     0.11111111    0.50000000    0.11111111       0.02500000
   3:     0.16666667    0.50000000    0.16666667       0.02500000
   4:     0.22222222    0.50000000    0.22222222       0.02500000
   5:     0.27777778    0.50000000    0.27777778       0.02500000
   6:     0.33333333    0.50000000    0.33333333       0.02500000
   7:     0.38888889    0.50000000    0.38888889       0.02500000
   8:     0.44444444    0.50000000    0.44444444       0.02500000
   9:     0.50000000    0.50000000    0.50000000       0.02500000
          ...
  39:     0.50000000    0.50000000    0.50000000       0.02500000

Wave functions: Plane wave expansion
  Cutoff energy: 450.000 eV
  Number of coefficients (min, max): 5040, 5144
  Pulay-stress correction: 0.000000 eV/Ang^3 (de/decut=0.000000)
  Using Numpy's FFT
  ScaLapack parameters: grid=1x1, blocksize=None
  Wavefunction extrapolation:
    Improved wavefunction reuse through dual PAW basis 

Occupation numbers: Fermi-Dirac:
  width: 0.1000  # eV
 

Eigensolver
   Davidson(niter=2) 

No density mixing

XC parameters: PBE with 2 nearest neighbor stencil

Memory estimate:
  Process memory now: 974.39 MiB
  Calculator: 150.30 MiB
    Density: 17.18 MiB
      Arrays: 6.50 MiB
      Localized functions: 8.18 MiB
      Mixer: 2.50 MiB
    Hamiltonian: 4.47 MiB
      Arrays: 4.25 MiB
      XC: 0.00 MiB
      Poisson: 0.00 MiB
      vbar: 0.22 MiB
    Wavefunctions: 128.65 MiB
      Arrays psit_nG: 81.63 MiB
      Eigensolver: 2.54 MiB
      Projections: 1.11 MiB
      Projectors: 38.98 MiB
      PW-descriptor: 4.39 MiB

Total number of cores used: 1

Number of atoms: 5
Number of atomic orbitals: 26
Number of bands in calculation: 26
Number of valence electrons: 44
Bands to converge: 16

... initialized

Initializing position-dependent things.

Creating initial wave functions:
  26 bands from LCAO basis set

     .--------------.  
    /|              |  
   / |              |  
  /  |              |  
 *   |              |  
 |   |              |  
 | I |    Pb        |  
 |   |              |  
 |   .--I-----------.  
 |  /              /   
 | /      I       /    
 |/              /     
 Cs-------------*      

Atomic positions and initial magnetic moments

Positions:
   0 Cs     0.000000    0.000000    0.000000    ( 0.0000,  0.0000,  0.0000)
   1 Pb     3.090000    3.090000    3.090000    ( 0.0000,  0.0000,  0.0000)
   2 I      3.090000    0.000000    3.090000    ( 0.0000,  0.0000,  0.0000)
   3 I      0.000000    3.090000    3.090000    ( 0.0000,  0.0000,  0.0000)
   4 I      3.090000    3.090000    0.000000    ( 0.0000,  0.0000,  0.0000)

Unit cell:
           periodic     x           y           z      points  spacing
  1. axis:    yes    6.180000    0.000000    0.000000    32     0.1931
  2. axis:    yes    0.000000    6.180000    0.000000    32     0.1931
  3. axis:    yes    0.000000    0.000000    6.180000    32     0.1931

  Lengths:   6.180000   6.180000   6.180000
  Angles:   90.000000  90.000000  90.000000

Effective grid spacing dv^(1/3) = 0.1931

     iter     time        total  log10-change:
                         energy   eigst   dens
iter:   1 03:40:21   -12.754694   -0.50       c
iter:   2 03:40:36   -12.796479   -1.73       c
iter:   3 03:40:51   -12.800347   -2.78       c
iter:   4 03:41:06   -12.800817c  -3.76       c
iter:   5 03:41:22   -12.800883c  -4.66       c
iter:   6 03:41:37   -12.800894c  -5.48       c
iter:   7 03:41:53   -12.800896c  -6.18       c
iter:   8 03:42:08   -12.800896c  -6.79       c
iter:   9 03:42:24   -12.800897c  -7.32       c
iter:  10 03:42:39   -12.800897c  -7.82c      c

Converged after 10 iterations.

Dipole moment: (-0.000000, 0.000000, 0.000000) |e|*Ang

Energy contributions relative to reference atoms: (reference = -1359696.926849)

Kinetic:        +39.590362
Potential:      -37.016337
External:        +0.000000
XC:             -15.267111
Entropy (-ST):   -0.001562
Local:           -0.107030
SIC:             +0.000000
--------------------------
Free energy:    -12.801678
Extrapolated:   -12.800897

Showing only first 2 kpts
 Kpt  Band  Eigenvalues  Occupancy
  0    20      1.42236    2.00000
  0    21      2.03017    2.00000
  0    22      5.13492    0.00000
  0    23      7.51216    0.00000

  1    20      1.43576    2.00000
  1    21      2.03865    2.00000
  1    22      5.11944    0.00000
  1    23      7.53329    0.00000


Fermi level: 3.67904

Gap: 1.089 eV
Transition (v -> c):
  (s=0, k=9, n=21, [0.50, 0.50, 0.50]) -> (s=0, k=9, n=22, [0.50, 0.50, 0.50])
No difference between direct/indirect transitions
Writing to calculations/alpha/03_bands/bands.gpw (mode='')

Timing:                              incl.     excl.
-----------------------------------------------------------
Hamiltonian:                         0.409     0.001   0.0% |
 Atomic:                             0.261     0.001   0.0% |
  XC Correction:                     0.260     0.260   0.2% |
 Calculate atomic Hamiltonians:      0.011     0.011   0.0% |
 Communicate:                        0.000     0.000   0.0% |
 Poisson:                            0.001     0.001   0.0% |
 XC 3D grid:                         0.134     0.134   0.1% |
LCAO initialization:                 8.848     0.205   0.1% |
 LCAO eigensolver:                   0.513     0.001   0.0% |
  Calculate projections:             0.007     0.007   0.0% |
  DenseAtomicCorrection:             0.016     0.016   0.0% |
  Distribute overlap matrix:         0.001     0.001   0.0% |
  Orbital Layouts:                   0.176     0.176   0.1% |
  Potential matrix:                  0.088     0.088   0.1% |
  Sum over cells:                    0.223     0.223   0.1% |
 LCAO to grid:                       7.769     7.769   4.7% |-|
 Set positions (LCAO WFS):           0.362     0.058   0.0% |
  Basic WFS set positions:           0.000     0.000   0.0% |
  Basis functions set positions:     0.000     0.000   0.0% |
  P tci:                             0.196     0.196   0.1% |
  ST tci:                            0.100     0.100   0.1% |
  mktci:                             0.008     0.008   0.0% |
PWDescriptor:                        0.272     0.272   0.2% |
Redistribute:                        0.000     0.000   0.0% |
SCF-cycle:                         155.135     0.085   0.1% |
 Davidson:                         152.500    10.479   6.3% |--|
  Apply H:                          34.989    34.469  20.8% |-------|
   HMM T:                            0.520     0.520   0.3% |
  Subspace diag:                    38.981     0.035   0.0% |
   calc_h_matrix:                   36.291     1.430   0.9% |
    Apply H:                        34.861    34.096  20.6% |-------|
     HMM T:                          0.764     0.764   0.5% |
   diagonalize:                      0.474     0.474   0.3% |
   rotate_psi:                       2.181     2.181   1.3% ||
  calc. matrices:                   46.335     5.140   3.1% ||
   Apply H:                         41.195    40.532  24.5% |---------|
    HMM T:                           0.663     0.663   0.4% |
  diagonalize:                       7.400     7.400   4.5% |-|
  rotate_psi:                       14.316    14.316   8.7% |--|
 Orthonormalize:                     2.551     0.004   0.0% |
  calc_s_matrix:                     0.129     0.129   0.1% |
  inverse-cholesky:                  0.006     0.006   0.0% |
  projections:                       2.262     2.262   1.4% ||
  rotate_psi_s:                      0.151     0.151   0.1% |
Set symmetry:                        0.000     0.000   0.0% |
Other:                               0.831     0.831   0.5% |
-----------------------------------------------------------
Total:                                       165.496 100.0%

Memory usage: 974.39 MiB
Date: Thu Apr 23 03:42:39 2026
