
  ___ ___ ___ _ _ _  
 |   |   |_  | | | | 
 | | | | | . | | | | 
 |__ |  _|___|_____|  25.7.0
 |___|_|             

User:   luis-ochoa@luis-ochoa-To-be-filled-by-O-E
Date:   Fri Apr 24 15:10:48 2026
Arch:   x86_64
Pid:    22376
CWD:    /home/luis-ochoa/Documents/Vscode/py/dft-cspbi3-gpaw-main
Python: 3.12.3
gpaw:   /home/luis-ochoa/Documents/Vscode/py/dft-cspbi3-gpaw-main/.venv/lib/python3.12/site-packages/gpaw
_gpaw:  /home/luis-ochoa/Documents/Vscode/py/dft-cspbi3-gpaw-main/.venv/lib/python3.12/site-packages/
        _gpaw.cpython-312-x86_64-linux-gnu.so
ase:    /home/luis-ochoa/Documents/Vscode/py/dft-cspbi3-gpaw-main/.venv/lib/python3.12/site-packages/ase (version 3.28.0)
numpy:  /home/luis-ochoa/Documents/Vscode/py/dft-cspbi3-gpaw-main/.venv/lib/python3.12/site-packages/numpy (version 2.4.4)
scipy:  /home/luis-ochoa/Documents/Vscode/py/dft-cspbi3-gpaw-main/.venv/lib/python3.12/site-packages/scipy (version 1.17.1)
libxc:  5.2.3
units:  Angstrom and eV
cores: 7
OpenMP: False
OMP_NUM_THREADS: 1

Input parameters:
  convergence: {energy: 1e-08}
  kpts: [3 3 3]
  mode: {ecut: 450.00000000000006,
         name: pw}
  occupations: {name: fermi-dirac,
                width: 0.05}
  symmetry: off
  xc: PBE

System changes: positions, numbers, cell, pbc, initial_charges, initial_magmoms 

Initialize ...

species:
  Cs:
    name: Caesium
    id: fa822afd343f47335d508b9ee4f394c3
    Z: 55.0
    valence: 9
    core: 46
    charge: 0.0
    file: /home/luis-ochoa/.gpaw/gpaw-setups-24.11.0/Cs.PBE.gz
    compensation charges: {type: gauss,
                           rc: 0.33,
                           lmax: 2}
    cutoffs: {filter: 2.06,
              core: 2.51}
    projectors:
      #              energy  rcut
      - 5s(2.00)   -26.706   1.164
      - 6s(1.00)    -2.085   1.164
      - 5p(6.00)   -13.523   1.058
      -  p          13.688   1.058
      -  d           0.000   1.058
  
    # Using partial waves for Cs as LCAO basis

  Pb:
    name: Lead
    id: 66e73b13d76dc837202bcdb13fee58e6
    Z: 82.0
    valence: 14
    core: 68
    charge: 0.0
    file: /home/luis-ochoa/.gpaw/gpaw-setups-24.11.0/Pb.PBE.gz
    compensation charges: {type: gauss,
                           rc: 0.38,
                           lmax: 2}
    cutoffs: {filter: 2.36,
              core: 2.43}
    projectors:
      #              energy  rcut
      - 6s(2.00)   -11.969   1.259
      - 6p(2.00)    -3.506   1.275
      - 5d(10.00)   -21.211   1.217
      -  s          15.243   1.259
      -  p          23.705   1.275
      -  d           6.001   1.217
  
    # Using partial waves for Pb as LCAO basis

  I:
    name: Iodine
    id: 91405a398e4dfe788ff04f57531604ec
    Z: 53.0
    valence: 7
    core: 46
    charge: 0.0
    file: /home/luis-ochoa/.gpaw/gpaw-setups-24.11.0/I.PBE.gz
    compensation charges: {type: gauss,
                           rc: 0.37,
                           lmax: 2}
    cutoffs: {filter: 2.06,
              core: 2.90}
    projectors:
      #              energy  rcut
      - 5s(2.00)   -17.382   1.164
      - 5p(5.00)    -7.088   1.164
      -  s           9.829   1.164
      -  p          20.123   1.164
      -  d           0.000   1.164
  
    # Using partial waves for I as LCAO basis

Reference energy: -10877575.414791  # eV

Spin-paired calculation

Convergence criteria:
 Maximum [total energy] change in last 3 cyles: 1e-08 eV / valence electron
 Maximum integral of absolute [dens]ity change: 0.0001 electrons / valence electron
 Maximum integral of absolute [eigenst]ate change: 4e-08 eV^2 / valence electron
 Maximum number of scf [iter]ations: 333
 (Square brackets indicate name in SCF output, whereas a 'c' in
 the SCF output indicates the quantity has converged.)

Symmetries present (total): 1

  ( 1  0  0)
  ( 0  1  0)
  ( 0  0  1)

27 k-points: 3 x 3 x 3 Monkhorst-Pack grid
27 k-points in the irreducible part of the Brillouin zone
       k-points in crystal coordinates                weights
   0:    -0.33333333   -0.33333333   -0.33333333          1/27
   1:    -0.33333333   -0.33333333    0.00000000          1/27
   2:    -0.33333333   -0.33333333    0.33333333          1/27
   3:    -0.33333333    0.00000000   -0.33333333          1/27
   4:    -0.33333333    0.00000000    0.00000000          1/27
   5:    -0.33333333    0.00000000    0.33333333          1/27
   6:    -0.33333333    0.33333333   -0.33333333          1/27
   7:    -0.33333333    0.33333333    0.00000000          1/27
   8:    -0.33333333    0.33333333    0.33333333          1/27
   9:     0.00000000   -0.33333333   -0.33333333          1/27
          ...
  26:     0.33333333    0.33333333    0.33333333          1/27

Wave functions: Plane wave expansion
  Cutoff energy: 450.000 eV
  Number of coefficients (min, max): 40843, 40934
  Pulay-stress correction: 0.000000 eV/Ang^3 (de/decut=0.000000)
  Using Numpy's FFT
  ScaLapack parameters: grid=1x1, blocksize=None
  Wavefunction extrapolation:
    Improved wavefunction reuse through dual PAW basis 

Occupation numbers: Fermi-Dirac:
  width: 0.0500  # eV
 

Eigensolver
   Davidson(niter=2) 

Densities:
  Coarse grid: 63*63*63 grid
  Fine grid: 126*126*126 grid
  Total Charge: 0.000000 

Density mixing:
  Method: separate
  Backend: pulay
  Linear mixing parameter: 0.05
  old densities: 5
  Damping of long wavelength oscillations: 50 

Hamiltonian:
  XC and Coulomb potentials evaluated on a 126*126*126 grid
  Using the PBE Exchange-Correlation functional
  External potential:
    NoExternalPotential
 

XC parameters: PBE with 2 nearest neighbor stencil

Memory estimate:
  Process memory now: 263.07 MiB
  Calculator: 737.83 MiB
    Density: 134.06 MiB
      Arrays: 49.60 MiB
      Localized functions: 65.39 MiB
      Mixer: 19.08 MiB
    Hamiltonian: 34.20 MiB
      Arrays: 32.43 MiB
      XC: 0.00 MiB
      Poisson: 0.00 MiB
      vbar: 1.77 MiB
    Wavefunctions: 569.57 MiB
      Arrays psit_nG: 389.75 MiB
      Eigensolver: 139.65 MiB
      Projections: 5.33 MiB
      Projectors: 23.42 MiB
      PW-descriptor: 11.41 MiB

Total number of cores used: 7
Parallelization over k-points: 7

Number of atoms: 40
Number of atomic orbitals: 208
Number of bands in calculation: 208
Number of valence electrons: 352
Bands to converge: occupied

... initialized

Initializing position-dependent things.

Density initialized from atomic densities
Creating initial wave functions:
  208 bands from LCAO basis set

         .-----------------------------.  
        /|                             |  
       / |                             |  
      /  |                             |  
     /   |                             |  
    /    |                             |  
   /   I |     Pb     I       Pb       |  
  /      |                             |  
 *       |   I              I          |  
 |       |     I              I        |  
 | I     | Pb     I       Pb           |  
 |       |                             |  
 |   Cs  I          Cs  I              |  
 |     I | I   Pb     I   I   Pb       |  
 |       |                             |  
 |       .---I--------------I----------.  
 Cs     /       Cs                    /   
 | I   /   Pb  I  I       Pb  I      /    
 |    /                             /     
 |   Cs  I          Cs  I          /      
 |  /                             /       
 | /       I              I      /        
 |/                             /         
 Cs-------------Cs-------------*          

Atomic positions and initial magnetic moments

Positions:
   0 Cs     0.000000    0.000000    0.000000    ( 0.0000,  0.0000,  0.0000)
   1 Pb     3.090000    3.090000    3.090000    ( 0.0000,  0.0000,  0.0000)
   2 I      3.090000    0.000000    3.090000    ( 0.0000,  0.0000,  0.0000)
   3 I      0.050000    3.090000    3.090000    ( 0.0000,  0.0000,  0.0000)
   4 I      3.090000    3.090000    0.000000    ( 0.0000,  0.0000,  0.0000)
   5 Cs     0.000000    0.000000    6.180000    ( 0.0000,  0.0000,  0.0000)
   6 Pb     3.090000    3.090000    9.270000    ( 0.0000,  0.0000,  0.0000)
   7 I      3.090000    0.000000    9.270000    ( 0.0000,  0.0000,  0.0000)
   8 I      0.000000    3.090000    9.270000    ( 0.0000,  0.0000,  0.0000)
   9 I      3.090000    3.090000    6.180000    ( 0.0000,  0.0000,  0.0000)
  10 Cs     0.000000    6.180000    0.000000    ( 0.0000,  0.0000,  0.0000)
  11 Pb     3.090000    9.270000    3.090000    ( 0.0000,  0.0000,  0.0000)
  12 I      3.090000    6.180000    3.090000    ( 0.0000,  0.0000,  0.0000)
  13 I      0.000000    9.270000    3.090000    ( 0.0000,  0.0000,  0.0000)
  14 I      3.090000    9.270000    0.000000    ( 0.0000,  0.0000,  0.0000)
  15 Cs     0.000000    6.180000    6.180000    ( 0.0000,  0.0000,  0.0000)
  16 Pb     3.090000    9.270000    9.270000    ( 0.0000,  0.0000,  0.0000)
  17 I      3.090000    6.180000    9.270000    ( 0.0000,  0.0000,  0.0000)
  18 I      0.000000    9.270000    9.270000    ( 0.0000,  0.0000,  0.0000)
  19 I      3.090000    9.270000    6.180000    ( 0.0000,  0.0000,  0.0000)
  20 Cs     6.180000    0.000000    0.000000    ( 0.0000,  0.0000,  0.0000)
  21 Pb     9.270000    3.090000    3.090000    ( 0.0000,  0.0000,  0.0000)
  22 I      9.270000    0.000000    3.090000    ( 0.0000,  0.0000,  0.0000)
  23 I      6.180000    3.090000    3.090000    ( 0.0000,  0.0000,  0.0000)
  24 I      9.270000    3.090000    0.000000    ( 0.0000,  0.0000,  0.0000)
  25 Cs     6.180000    0.000000    6.180000    ( 0.0000,  0.0000,  0.0000)
  26 Pb     9.270000    3.090000    9.270000    ( 0.0000,  0.0000,  0.0000)
  27 I      9.270000    0.000000    9.270000    ( 0.0000,  0.0000,  0.0000)
  28 I      6.180000    3.090000    9.270000    ( 0.0000,  0.0000,  0.0000)
  29 I      9.270000    3.090000    6.180000    ( 0.0000,  0.0000,  0.0000)
  30 Cs     6.180000    6.180000    0.000000    ( 0.0000,  0.0000,  0.0000)
  31 Pb     9.270000    9.270000    3.090000    ( 0.0000,  0.0000,  0.0000)
  32 I      9.270000    6.180000    3.090000    ( 0.0000,  0.0000,  0.0000)
  33 I      6.180000    9.270000    3.090000    ( 0.0000,  0.0000,  0.0000)
  34 I      9.270000    9.270000    0.000000    ( 0.0000,  0.0000,  0.0000)
  35 Cs     6.180000    6.180000    6.180000    ( 0.0000,  0.0000,  0.0000)
  36 Pb     9.270000    9.270000    9.270000    ( 0.0000,  0.0000,  0.0000)
  37 I      9.270000    6.180000    9.270000    ( 0.0000,  0.0000,  0.0000)
  38 I      6.180000    9.270000    9.270000    ( 0.0000,  0.0000,  0.0000)
  39 I      9.270000    9.270000    6.180000    ( 0.0000,  0.0000,  0.0000)

Unit cell:
           periodic     x           y           z      points  spacing
  1. axis:    yes   12.360000    0.000000    0.000000    63     0.1962
  2. axis:    yes    0.000000   12.360000    0.000000    63     0.1962
  3. axis:    yes    0.000000    0.000000   12.360000    63     0.1962

  Lengths:  12.360000  12.360000  12.360000
  Angles:   90.000000  90.000000  90.000000

Effective grid spacing dv^(1/3) = 0.1962

     iter     time        total  log10-change:
                         energy   eigst   dens
iter:   1 15:19:57  -114.921780
iter:   2 15:24:06  -114.579632   -1.36  -1.34
iter:   3 15:28:15  -112.909203   -2.11  -1.39
iter:   4 15:32:23  -112.576656   -1.96  -1.56
iter:   5 15:36:31  -112.426786   -3.02  -1.79
iter:   6 15:40:37  -112.438265   -4.15  -2.28
iter:   7 15:44:43  -112.422474   -3.88  -2.43
iter:   8 15:48:52  -112.423763   -4.40  -2.59
iter:   9 15:52:58  -112.423439   -5.58  -3.15
iter:  10 15:57:03  -112.423520   -5.96  -3.24
iter:  11 16:01:09  -112.423560   -6.35  -3.19
iter:  12 16:05:16  -112.423496   -6.14  -3.25
iter:  13 16:09:22  -112.423591   -6.24  -3.26
iter:  14 16:13:28  -112.423508   -5.85  -3.31
iter:  15 16:17:33  -112.423546   -6.96  -3.50
iter:  16 16:21:39  -112.423485   -6.55  -3.55
iter:  17 16:25:45  -112.423449   -7.03  -3.60
iter:  18 16:29:51  -112.423406   -6.33  -3.61
iter:  19 16:33:57  -112.423405   -7.42c -3.87
iter:  20 16:38:04  -112.423408c  -7.19  -4.51c
iter:  21 16:42:09  -112.423404   -7.96c -4.36c
iter:  22 16:46:15  -112.423404   -9.11c -4.68c
iter:  23 16:50:21  -112.423403c  -8.43c -4.72c

Converged after 23 iterations.

Dipole moment: (-5.456014, -0.000531, -0.000531) |e|*Ang

Energy contributions relative to reference atoms: (reference = -10877575.414791)

Kinetic:       +306.955624
Potential:     -296.346559
External:        +0.000000
XC:            -122.161281
Entropy (-ST):   -0.000003
Local:           -0.871185
SIC:             +0.000000
--------------------------
Free energy:   -112.423405
Extrapolated:  -112.423403

Showing only first 2 kpts
 Kpt  Band  Eigenvalues  Occupancy
  0   174      1.84546    2.00000
  0   175      1.87576    2.00000
  0   176      5.56749    0.00000
  0   177      5.56758    0.00000

  1   174      2.28811    2.00000
  1   175      2.41766    2.00000
  1   176      4.56396    0.00000
  1   177      4.78584    0.00000


Fermi level: 3.71686

Gap: 1.089 eV
Transition (v -> c):
  (s=0, k=13, n=175, [0.00, 0.00, 0.00]) -> (s=0, k=13, n=176, [0.00, 0.00, 0.00])
No difference between direct/indirect transitions

Forces in eV/Ang:
  0 Cs    0.00271   -0.00016   -0.00016
  1 Pb    0.08129    0.00019    0.00019
  2 I     0.00503   -0.00897    0.00000
  3 I    -0.28571    0.00000    0.00000
  4 I     0.00503    0.00000   -0.00897
  5 Cs    0.00271   -0.00016    0.00016
  6 Pb    0.00027    0.00019   -0.00019
  7 I    -0.00006   -0.00044   -0.00000
  8 I    -0.00235    0.00000   -0.00000
  9 I     0.00503    0.00000    0.00897
 10 Cs    0.00271    0.00016   -0.00016
 11 Pb    0.00027   -0.00019    0.00019
 12 I     0.00503    0.00897    0.00000
 13 I    -0.00235   -0.00000    0.00000
 14 I    -0.00006   -0.00000   -0.00044
 15 Cs    0.00271    0.00016    0.00016
 16 Pb    0.00015   -0.00019   -0.00019
 17 I    -0.00006    0.00044   -0.00000
 18 I    -0.00093   -0.00000   -0.00000
 19 I    -0.00006   -0.00000    0.00044
 20 Cs   -0.00211    0.00003    0.00003
 21 Pb    0.05521    0.00019    0.00019
 22 I     0.00509    0.00830    0.00000
 23 I     0.10557    0.00000    0.00000
 24 I     0.00509    0.00000    0.00830
 25 Cs   -0.00211    0.00003   -0.00003
 26 Pb   -0.00003    0.00019   -0.00019
 27 I     0.00005    0.00042   -0.00000
 28 I     0.00246    0.00000   -0.00000
 29 I     0.00509    0.00000   -0.00830
 30 Cs   -0.00211   -0.00003    0.00003
 31 Pb   -0.00003   -0.00019    0.00019
 32 I     0.00509   -0.00830    0.00000
 33 I     0.00246   -0.00000    0.00000
 34 I     0.00005   -0.00000    0.00042
 35 Cs   -0.00211   -0.00003   -0.00003
 36 Pb   -0.00019   -0.00019   -0.00019
 37 I     0.00005   -0.00042   -0.00000
 38 I     0.00104   -0.00000   -0.00000
 39 I     0.00005   -0.00000   -0.00042

System changes: positions 

Initializing position-dependent things.

Density initialized from wave functions
         .-----------------------------.  
        /|                             |  
       / |                             |  
      /  |                             |  
     /   |                             |  
    /    |                             |  
   /   I |     Pb     I       Pb       |  
  /      |                             |  
 *       |   I              I          |  
 |       |     I              I        |  
 | I     | Pb     I       Pb           |  
 |       |                             |  
 |   Cs  I          Cs  I              |  
 |     I | I   Pb     I   I   Pb       |  
 |       |                             |  
 |       .---I--------------I----------.  
 Cs     /       Cs                    /   
 | I   /   Pb  I  I       Pb  I      /    
 |    /                             /     
 |   Cs  I          Cs  I          /      
 |  /                             /       
 | /       I              I      /        
 |/                             /         
 Cs-------------Cs-------------*          

Atomic positions and initial magnetic moments

Positions:
   0 Cs     0.000000    0.000000    0.000000    ( 0.0000,  0.0000,  0.0000)
   1 Pb     3.090000    3.090000    3.090000    ( 0.0000,  0.0000,  0.0000)
   2 I      3.090000    0.000000    3.090000    ( 0.0000,  0.0000,  0.0000)
   3 I      0.000000    3.040000    3.090000    ( 0.0000,  0.0000,  0.0000)
   4 I      3.090000    3.090000    0.000000    ( 0.0000,  0.0000,  0.0000)
   5 Cs     0.000000    0.000000    6.180000    ( 0.0000,  0.0000,  0.0000)
   6 Pb     3.090000    3.090000    9.270000    ( 0.0000,  0.0000,  0.0000)
   7 I      3.090000    0.000000    9.270000    ( 0.0000,  0.0000,  0.0000)
   8 I      0.000000    3.090000    9.270000    ( 0.0000,  0.0000,  0.0000)
   9 I      3.090000    3.090000    6.180000    ( 0.0000,  0.0000,  0.0000)
  10 Cs     0.000000    6.180000    0.000000    ( 0.0000,  0.0000,  0.0000)
  11 Pb     3.090000    9.270000    3.090000    ( 0.0000,  0.0000,  0.0000)
  12 I      3.090000    6.180000    3.090000    ( 0.0000,  0.0000,  0.0000)
  13 I      0.000000    9.270000    3.090000    ( 0.0000,  0.0000,  0.0000)
  14 I      3.090000    9.270000    0.000000    ( 0.0000,  0.0000,  0.0000)
  15 Cs     0.000000    6.180000    6.180000    ( 0.0000,  0.0000,  0.0000)
  16 Pb     3.090000    9.270000    9.270000    ( 0.0000,  0.0000,  0.0000)
  17 I      3.090000    6.180000    9.270000    ( 0.0000,  0.0000,  0.0000)
  18 I      0.000000    9.270000    9.270000    ( 0.0000,  0.0000,  0.0000)
  19 I      3.090000    9.270000    6.180000    ( 0.0000,  0.0000,  0.0000)
  20 Cs     6.180000    0.000000    0.000000    ( 0.0000,  0.0000,  0.0000)
  21 Pb     9.270000    3.090000    3.090000    ( 0.0000,  0.0000,  0.0000)
  22 I      9.270000    0.000000    3.090000    ( 0.0000,  0.0000,  0.0000)
  23 I      6.180000    3.090000    3.090000    ( 0.0000,  0.0000,  0.0000)
  24 I      9.270000    3.090000    0.000000    ( 0.0000,  0.0000,  0.0000)
  25 Cs     6.180000    0.000000    6.180000    ( 0.0000,  0.0000,  0.0000)
  26 Pb     9.270000    3.090000    9.270000    ( 0.0000,  0.0000,  0.0000)
  27 I      9.270000    0.000000    9.270000    ( 0.0000,  0.0000,  0.0000)
  28 I      6.180000    3.090000    9.270000    ( 0.0000,  0.0000,  0.0000)
  29 I      9.270000    3.090000    6.180000    ( 0.0000,  0.0000,  0.0000)
  30 Cs     6.180000    6.180000    0.000000    ( 0.0000,  0.0000,  0.0000)
  31 Pb     9.270000    9.270000    3.090000    ( 0.0000,  0.0000,  0.0000)
  32 I      9.270000    6.180000    3.090000    ( 0.0000,  0.0000,  0.0000)
  33 I      6.180000    9.270000    3.090000    ( 0.0000,  0.0000,  0.0000)
  34 I      9.270000    9.270000    0.000000    ( 0.0000,  0.0000,  0.0000)
  35 Cs     6.180000    6.180000    6.180000    ( 0.0000,  0.0000,  0.0000)
  36 Pb     9.270000    9.270000    9.270000    ( 0.0000,  0.0000,  0.0000)
  37 I      9.270000    6.180000    9.270000    ( 0.0000,  0.0000,  0.0000)
  38 I      6.180000    9.270000    9.270000    ( 0.0000,  0.0000,  0.0000)
  39 I      9.270000    9.270000    6.180000    ( 0.0000,  0.0000,  0.0000)

Unit cell:
           periodic     x           y           z      points  spacing
  1. axis:    yes   12.360000    0.000000    0.000000    63     0.1962
  2. axis:    yes    0.000000   12.360000    0.000000    63     0.1962
  3. axis:    yes    0.000000    0.000000   12.360000    63     0.1962

  Lengths:  12.360000  12.360000  12.360000
  Angles:   90.000000  90.000000  90.000000

Effective grid spacing dv^(1/3) = 0.1962

     iter     time        total  log10-change:
                         energy   eigst   dens
iter:   1 16:56:03  -112.432265   -4.01
iter:   2 17:00:07  -112.431808   -5.44  -3.33
iter:   3 17:04:12  -112.430535   -4.66  -3.38
iter:   4 17:08:17  -112.430302   -6.16  -3.70
iter:   5 17:12:21  -112.430282   -6.09  -3.91
iter:   6 17:16:28  -112.430263   -6.42  -3.97
iter:   7 17:20:35  -112.430251   -6.71  -4.21c
iter:   8 17:24:41  -112.430250   -7.83c -4.47c
iter:   9 17:28:46  -112.430249c  -7.75c -4.55c

Converged after 9 iterations.

Dipole moment: (0.001668, 0.007836, 0.000044) |e|*Ang

Energy contributions relative to reference atoms: (reference = -10877575.414791)

Kinetic:       +306.792331
Potential:     -296.210726
External:        +0.000000
XC:            -122.146776
Entropy (-ST):   -0.000003
Local:           -0.865076
SIC:             +0.000000
--------------------------
Free energy:   -112.430251
Extrapolated:  -112.430249

Showing only first 2 kpts
 Kpt  Band  Eigenvalues  Occupancy
  0   174      1.84413    2.00000
  0   175      1.87310    2.00000
  0   176      5.56463    0.00000
  0   177      5.57054    0.00000

  1   174      2.28480    2.00000
  1   175      2.41702    2.00000
  1   176      4.56413    0.00000
  1   177      4.78865    0.00000


Fermi level: 3.71660

Gap: 1.089 eV
Transition (v -> c):
  (s=0, k=13, n=175, [0.00, 0.00, 0.00]) -> (s=0, k=13, n=176, [0.00, 0.00, 0.00])
No difference between direct/indirect transitions

Forces in eV/Ang:
  0 Cs    0.00111   -0.00021    0.00040
  1 Pb   -0.00362   -0.00172    0.00018
  2 I     0.00873   -0.00777   -0.00000
  3 I     0.00987    0.01321   -0.00000
  4 I     0.00019    0.00045   -0.00243
  5 Cs    0.00111   -0.00021   -0.00040
  6 Pb    0.00034   -0.00328   -0.00018
  7 I     0.00072    0.00177    0.00000
  8 I     0.00393   -0.00048    0.00000
  9 I     0.00019    0.00045    0.00243
 10 Cs    0.00113   -0.00010   -0.00048
 11 Pb    0.00038    0.00774    0.00018
 12 I    -0.00782   -0.00249   -0.00000
 13 I     0.00390   -0.00192   -0.00000
 14 I     0.00029    0.00054    0.00181
 15 Cs    0.00113   -0.00010    0.00048
 16 Pb    0.00133    0.00358   -0.00018
 17 I    -0.00012   -0.00193    0.00000
 18 I    -0.00007    0.00033    0.00000
 19 I     0.00029    0.00054   -0.00181
 20 Cs   -0.00008   -0.00026    0.00048
 21 Pb   -0.00116   -0.00183    0.00018
 22 I    -0.00919   -0.00308   -0.00000
 23 I    -0.00079   -0.00142   -0.00000
 24 I    -0.00065    0.00047    0.00231
 25 Cs   -0.00008   -0.00026   -0.00048
 26 Pb   -0.00231   -0.00332   -0.00018
 27 I    -0.00127   -0.00171    0.00000
 28 I    -0.00266   -0.00127    0.00000
 29 I    -0.00065    0.00047   -0.00231
 30 Cs   -0.00008   -0.00003   -0.00066
 31 Pb   -0.00235    0.00772    0.00018
 32 I     0.00735   -0.00726   -0.00000
 33 I    -0.00264   -0.00058   -0.00000
 34 I    -0.00083    0.00054   -0.00161
 35 Cs   -0.00008   -0.00003    0.00066
 36 Pb   -0.00174    0.00364   -0.00018
 37 I    -0.00042    0.00152    0.00000
 38 I     0.00033    0.00129    0.00000
 39 I    -0.00083    0.00054    0.00161

System changes: positions 

Initializing position-dependent things.

Density initialized from wave functions
         .-----------------------------.  
        /|                             |  
       / |                             |  
      /  |                             |  
     /   |                             |  
    /    |                             |  
   /   I |     Pb     I       Pb       |  
  /      |                             |  
 *       |   I              I          |  
 |       |     I              I        |  
 | I     | Pb     I       Pb           |  
 |       |                             |  
 |   Cs  I          Cs  I              |  
 |     I | I   Pb     I   I   Pb       |  
 |       |                             |  
 |       .---I--------------I----------.  
 Cs     /       Cs                    /   
 | I   /   Pb  I  I       Pb  I      /    
 |    /                             /     
 |   Cs  I          Cs  I          /      
 |  /                             /       
 | /       I              I      /        
 |/                             /         
 Cs-------------Cs-------------*          

Atomic positions and initial magnetic moments

Positions:
   0 Cs     0.000000    0.000000    0.000000    ( 0.0000,  0.0000,  0.0000)
   1 Pb     3.090000    3.090000    3.090000    ( 0.0000,  0.0000,  0.0000)
   2 I      3.090000    0.000000    3.090000    ( 0.0000,  0.0000,  0.0000)
   3 I      0.000000    3.140000    3.090000    ( 0.0000,  0.0000,  0.0000)
   4 I      3.090000    3.090000    0.000000    ( 0.0000,  0.0000,  0.0000)
   5 Cs     0.000000    0.000000    6.180000    ( 0.0000,  0.0000,  0.0000)
   6 Pb     3.090000    3.090000    9.270000    ( 0.0000,  0.0000,  0.0000)
   7 I      3.090000    0.000000    9.270000    ( 0.0000,  0.0000,  0.0000)
   8 I      0.000000    3.090000    9.270000    ( 0.0000,  0.0000,  0.0000)
   9 I      3.090000    3.090000    6.180000    ( 0.0000,  0.0000,  0.0000)
  10 Cs     0.000000    6.180000    0.000000    ( 0.0000,  0.0000,  0.0000)
  11 Pb     3.090000    9.270000    3.090000    ( 0.0000,  0.0000,  0.0000)
  12 I      3.090000    6.180000    3.090000    ( 0.0000,  0.0000,  0.0000)
  13 I      0.000000    9.270000    3.090000    ( 0.0000,  0.0000,  0.0000)
  14 I      3.090000    9.270000    0.000000    ( 0.0000,  0.0000,  0.0000)
  15 Cs     0.000000    6.180000    6.180000    ( 0.0000,  0.0000,  0.0000)
  16 Pb     3.090000    9.270000    9.270000    ( 0.0000,  0.0000,  0.0000)
  17 I      3.090000    6.180000    9.270000    ( 0.0000,  0.0000,  0.0000)
  18 I      0.000000    9.270000    9.270000    ( 0.0000,  0.0000,  0.0000)
  19 I      3.090000    9.270000    6.180000    ( 0.0000,  0.0000,  0.0000)
  20 Cs     6.180000    0.000000    0.000000    ( 0.0000,  0.0000,  0.0000)
  21 Pb     9.270000    3.090000    3.090000    ( 0.0000,  0.0000,  0.0000)
  22 I      9.270000    0.000000    3.090000    ( 0.0000,  0.0000,  0.0000)
  23 I      6.180000    3.090000    3.090000    ( 0.0000,  0.0000,  0.0000)
  24 I      9.270000    3.090000    0.000000    ( 0.0000,  0.0000,  0.0000)
  25 Cs     6.180000    0.000000    6.180000    ( 0.0000,  0.0000,  0.0000)
  26 Pb     9.270000    3.090000    9.270000    ( 0.0000,  0.0000,  0.0000)
  27 I      9.270000    0.000000    9.270000    ( 0.0000,  0.0000,  0.0000)
  28 I      6.180000    3.090000    9.270000    ( 0.0000,  0.0000,  0.0000)
  29 I      9.270000    3.090000    6.180000    ( 0.0000,  0.0000,  0.0000)
  30 Cs     6.180000    6.180000    0.000000    ( 0.0000,  0.0000,  0.0000)
  31 Pb     9.270000    9.270000    3.090000    ( 0.0000,  0.0000,  0.0000)
  32 I      9.270000    6.180000    3.090000    ( 0.0000,  0.0000,  0.0000)
  33 I      6.180000    9.270000    3.090000    ( 0.0000,  0.0000,  0.0000)
  34 I      9.270000    9.270000    0.000000    ( 0.0000,  0.0000,  0.0000)
  35 Cs     6.180000    6.180000    6.180000    ( 0.0000,  0.0000,  0.0000)
  36 Pb     9.270000    9.270000    9.270000    ( 0.0000,  0.0000,  0.0000)
  37 I      9.270000    6.180000    9.270000    ( 0.0000,  0.0000,  0.0000)
  38 I      6.180000    9.270000    9.270000    ( 0.0000,  0.0000,  0.0000)
  39 I      9.270000    9.270000    6.180000    ( 0.0000,  0.0000,  0.0000)

Unit cell:
           periodic     x           y           z      points  spacing
  1. axis:    yes   12.360000    0.000000    0.000000    63     0.1962
  2. axis:    yes    0.000000   12.360000    0.000000    63     0.1962
  3. axis:    yes    0.000000    0.000000   12.360000    63     0.1962

  Lengths:  12.360000  12.360000  12.360000
  Angles:   90.000000  90.000000  90.000000

Effective grid spacing dv^(1/3) = 0.1962

     iter     time        total  log10-change:
                         energy   eigst   dens
iter:   1 17:34:27  -112.430900   -3.85
iter:   2 17:38:32  -112.430783   -5.02  -3.48
iter:   3 17:42:36  -112.430321   -5.02  -3.53
iter:   4 17:46:42  -112.430270   -6.59  -3.84
iter:   5 17:50:46  -112.430273   -5.97  -3.97
iter:   6 17:54:52  -112.430249   -6.62  -3.97
iter:   7 17:58:57  -112.430251   -7.03  -4.34c
iter:   8 18:03:00  -112.430249c  -7.98c -4.44c

Converged after 8 iterations.

Dipole moment: (-0.000086, -0.008939, -0.000038) |e|*Ang

Energy contributions relative to reference atoms: (reference = -10877575.414791)

Kinetic:       +306.775837
Potential:     -296.196445
External:        +0.000000
XC:            -122.146003
Entropy (-ST):   -0.000003
Local:           -0.863636
SIC:             +0.000000
--------------------------
Free energy:   -112.430250
Extrapolated:  -112.430249

Showing only first 2 kpts
 Kpt  Band  Eigenvalues  Occupancy
  0   174      1.84411    2.00000
  0   175      1.87310    2.00000
  0   176      5.56462    0.00000
  0   177      5.57054    0.00000

  1   174      2.28472    2.00000
  1   175      2.41702    2.00000
  1   176      4.56413    0.00000
  1   177      4.78874    0.00000


Fermi level: 3.71660

Gap: 1.089 eV
Transition (v -> c):
  (s=0, k=13, n=175, [0.00, 0.00, 0.00]) -> (s=0, k=13, n=176, [0.00, 0.00, 0.00])
No difference between direct/indirect transitions

Forces in eV/Ang:
  0 Cs   -0.00011   -0.00090   -0.00532
  1 Pb   -0.00178    0.00576    0.00018
  2 I    -0.00233    0.00172    0.00000
  3 I     0.00001   -0.02205   -0.00000
  4 I     0.00026   -0.00162   -0.00030
  5 Cs   -0.00011   -0.00090    0.00532
  6 Pb    0.00049   -0.00449   -0.00018
  7 I    -0.00003   -0.00023    0.00000
  8 I     0.00007   -0.00251    0.00000
  9 I     0.00026   -0.00161    0.00030
 10 Cs   -0.00011   -0.00042    0.00515
 11 Pb    0.00054   -0.00203    0.00018
 12 I     0.00318    0.00276    0.00000
 13 I     0.00006   -0.00153   -0.00000
 14 I     0.00008    0.00261    0.00015
 15 Cs   -0.00011   -0.00041   -0.00515
 16 Pb    0.00026    0.00559   -0.00018
 17 I     0.00022   -0.00057    0.00000
 18 I    -0.00034    0.00380    0.00000
 19 I     0.00008    0.00261   -0.00015
 20 Cs    0.00001   -0.00043    0.00060
 21 Pb    0.00186    0.00576    0.00018
 22 I     0.00247    0.00208   -0.00000
 23 I    -0.00004   -0.00383   -0.00000
 24 I    -0.00007   -0.00161    0.00006
 25 Cs    0.00001   -0.00043   -0.00060
 26 Pb   -0.00034   -0.00451   -0.00018
 27 I     0.00007   -0.00074    0.00000
 28 I    -0.00018   -0.00282    0.00000
 29 I    -0.00007   -0.00161   -0.00006
 30 Cs    0.00001   -0.00044   -0.00052
 31 Pb   -0.00034   -0.00203    0.00018
 32 I    -0.00303    0.00236    0.00000
 33 I    -0.00021    0.00801   -0.00000
 34 I    -0.00004    0.00261   -0.00029
 35 Cs    0.00001   -0.00044    0.00052
 36 Pb   -0.00019    0.00557   -0.00018
 37 I    -0.00017   -0.00007    0.00000
 38 I     0.00030    0.00315    0.00000
 39 I    -0.00004    0.00261    0.00029

System changes: positions 

Initializing position-dependent things.

Density initialized from wave functions
         .-----------------------------.  
        /|                             |  
       / |                             |  
      /  |                             |  
     /   |                             |  
    /    |                             |  
   /   I |     Pb     I       Pb       |  
  /      |                             |  
 *       |   I              I          |  
 |       |     I              I        |  
 | I     | Pb     I       Pb           |  
 |       |                             |  
 |   Cs  I          Cs  I              |  
 |     I | I   Pb     I   I   Pb       |  
 |       |                             |  
 |       .---I--------------I----------.  
 Cs     /       Cs                    /   
 | I   /   Pb  I  I       Pb  I      /    
 |    /                             /     
 |   Cs  I          Cs  I          /      
 |  /                             /       
 | /       I              I      /        
 |/                             /         
 Cs-------------Cs-------------*          

Atomic positions and initial magnetic moments

Positions:
   0 Cs     0.000000    0.000000    0.000000    ( 0.0000,  0.0000,  0.0000)
   1 Pb     3.090000    3.090000    3.090000    ( 0.0000,  0.0000,  0.0000)
   2 I      3.090000    0.000000    3.090000    ( 0.0000,  0.0000,  0.0000)
   3 I      0.000000    3.090000    3.040000    ( 0.0000,  0.0000,  0.0000)
   4 I      3.090000    3.090000    0.000000    ( 0.0000,  0.0000,  0.0000)
   5 Cs     0.000000    0.000000    6.180000    ( 0.0000,  0.0000,  0.0000)
   6 Pb     3.090000    3.090000    9.270000    ( 0.0000,  0.0000,  0.0000)
   7 I      3.090000    0.000000    9.270000    ( 0.0000,  0.0000,  0.0000)
   8 I      0.000000    3.090000    9.270000    ( 0.0000,  0.0000,  0.0000)
   9 I      3.090000    3.090000    6.180000    ( 0.0000,  0.0000,  0.0000)
  10 Cs     0.000000    6.180000    0.000000    ( 0.0000,  0.0000,  0.0000)
  11 Pb     3.090000    9.270000    3.090000    ( 0.0000,  0.0000,  0.0000)
  12 I      3.090000    6.180000    3.090000    ( 0.0000,  0.0000,  0.0000)
  13 I      0.000000    9.270000    3.090000    ( 0.0000,  0.0000,  0.0000)
  14 I      3.090000    9.270000    0.000000    ( 0.0000,  0.0000,  0.0000)
  15 Cs     0.000000    6.180000    6.180000    ( 0.0000,  0.0000,  0.0000)
  16 Pb     3.090000    9.270000    9.270000    ( 0.0000,  0.0000,  0.0000)
  17 I      3.090000    6.180000    9.270000    ( 0.0000,  0.0000,  0.0000)
  18 I      0.000000    9.270000    9.270000    ( 0.0000,  0.0000,  0.0000)
  19 I      3.090000    9.270000    6.180000    ( 0.0000,  0.0000,  0.0000)
  20 Cs     6.180000    0.000000    0.000000    ( 0.0000,  0.0000,  0.0000)
  21 Pb     9.270000    3.090000    3.090000    ( 0.0000,  0.0000,  0.0000)
  22 I      9.270000    0.000000    3.090000    ( 0.0000,  0.0000,  0.0000)
  23 I      6.180000    3.090000    3.090000    ( 0.0000,  0.0000,  0.0000)
  24 I      9.270000    3.090000    0.000000    ( 0.0000,  0.0000,  0.0000)
  25 Cs     6.180000    0.000000    6.180000    ( 0.0000,  0.0000,  0.0000)
  26 Pb     9.270000    3.090000    9.270000    ( 0.0000,  0.0000,  0.0000)
  27 I      9.270000    0.000000    9.270000    ( 0.0000,  0.0000,  0.0000)
  28 I      6.180000    3.090000    9.270000    ( 0.0000,  0.0000,  0.0000)
  29 I      9.270000    3.090000    6.180000    ( 0.0000,  0.0000,  0.0000)
  30 Cs     6.180000    6.180000    0.000000    ( 0.0000,  0.0000,  0.0000)
  31 Pb     9.270000    9.270000    3.090000    ( 0.0000,  0.0000,  0.0000)
  32 I      9.270000    6.180000    3.090000    ( 0.0000,  0.0000,  0.0000)
  33 I      6.180000    9.270000    3.090000    ( 0.0000,  0.0000,  0.0000)
  34 I      9.270000    9.270000    0.000000    ( 0.0000,  0.0000,  0.0000)
  35 Cs     6.180000    6.180000    6.180000    ( 0.0000,  0.0000,  0.0000)
  36 Pb     9.270000    9.270000    9.270000    ( 0.0000,  0.0000,  0.0000)
  37 I      9.270000    6.180000    9.270000    ( 0.0000,  0.0000,  0.0000)
  38 I      6.180000    9.270000    9.270000    ( 0.0000,  0.0000,  0.0000)
  39 I      9.270000    9.270000    6.180000    ( 0.0000,  0.0000,  0.0000)

Unit cell:
           periodic     x           y           z      points  spacing
  1. axis:    yes   12.360000    0.000000    0.000000    63     0.1962
  2. axis:    yes    0.000000   12.360000    0.000000    63     0.1962
  3. axis:    yes    0.000000    0.000000   12.360000    63     0.1962

  Lengths:  12.360000  12.360000  12.360000
  Angles:   90.000000  90.000000  90.000000

Effective grid spacing dv^(1/3) = 0.1962

     iter     time        total  log10-change:
                         energy   eigst   dens
iter:   1 18:08:39  -112.430560   -4.17
iter:   2 18:12:41  -112.430509   -5.29  -3.65
iter:   3 18:16:46  -112.430274   -5.35  -3.70
iter:   4 18:20:50  -112.430257   -6.90  -4.05c
iter:   5 18:24:54  -112.430262   -6.28  -4.15c
iter:   6 18:28:58  -112.430250   -6.83  -4.11c
iter:   7 18:33:01  -112.430250   -7.26  -4.46c
iter:   8 18:37:04  -112.430249c  -8.09c -4.55c

Converged after 8 iterations.

Dipole moment: (0.000004, 0.000220, 0.008101) |e|*Ang

Energy contributions relative to reference atoms: (reference = -10877575.414791)

Kinetic:       +306.785307
Potential:     -296.204200
External:        +0.000000
XC:            -122.146515
Entropy (-ST):   -0.000003
Local:           -0.864840
SIC:             +0.000000
--------------------------
Free energy:   -112.430250
Extrapolated:  -112.430249

Showing only first 2 kpts
 Kpt  Band  Eigenvalues  Occupancy
  0   174      1.84409    2.00000
  0   175      1.87310    2.00000
  0   176      5.56463    0.00000
  0   177      5.57054    0.00000

  1   174      2.28385    2.00000
  1   175      2.41700    2.00000
  1   176      4.56407    0.00000
  1   177      4.78872    0.00000


Fermi level: 3.71660

Gap: 1.089 eV
Transition (v -> c):
  (s=0, k=13, n=175, [0.00, 0.00, 0.00]) -> (s=0, k=13, n=176, [0.00, 0.00, 0.00])
No difference between direct/indirect transitions

Forces in eV/Ang:
  0 Cs    0.00000    0.00229    0.00123
  1 Pb   -0.00151   -0.00156   -0.00006
  2 I    -0.00178    0.00100    0.00215
  3 I    -0.00002    0.00849    0.01961
  4 I     0.00623    0.00044   -0.00416
  5 Cs   -0.00000   -0.00227   -0.00097
  6 Pb    0.00029    0.00280    0.00213
  7 I    -0.00003    0.00020   -0.00203
  8 I     0.00005    0.00107   -0.00162
  9 I    -0.00573    0.00048   -0.00372
 10 Cs   -0.00000   -0.00195   -0.00135
 11 Pb    0.00026   -0.00213    0.00316
 12 I     0.00186    0.00112    0.00218
 13 I     0.00005    0.00100    0.00199
 14 I     0.00029   -0.00117    0.00019
 15 Cs    0.00000    0.00240    0.00141
 16 Pb    0.00019   -0.00335   -0.00349
 17 I     0.00007    0.00019   -0.00203
 18 I    -0.00004   -0.00153   -0.00264
 19 I    -0.00023   -0.00117    0.00012
 20 Cs   -0.00000    0.00026   -0.00035
 21 Pb    0.00148   -0.00154   -0.00006
 22 I     0.00178    0.00109    0.00215
 23 I     0.00003    0.00187    0.00216
 24 I    -0.00623    0.00044   -0.00406
 25 Cs   -0.00000    0.00023    0.00061
 26 Pb   -0.00028    0.00280    0.00213
 27 I     0.00003    0.00011   -0.00203
 28 I    -0.00005    0.00133   -0.00518
 29 I     0.00573    0.00047   -0.00380
 30 Cs   -0.00000    0.00019    0.00065
 31 Pb   -0.00025   -0.00214    0.00317
 32 I    -0.00187    0.00103    0.00218
 33 I    -0.00005   -0.00280    0.00178
 34 I    -0.00029   -0.00117    0.00009
 35 Cs   -0.00000    0.00021   -0.00038
 36 Pb   -0.00019   -0.00334   -0.00349
 37 I    -0.00007    0.00028   -0.00203
 38 I     0.00005   -0.00149   -0.00189
 39 I     0.00023   -0.00117    0.00021

System changes: positions 

Initializing position-dependent things.

Density initialized from wave functions
         .-----------------------------.  
        /|                             |  
       / |                             |  
      /  |                             |  
     /   |                             |  
    /    |                             |  
   /   I |     Pb     I       Pb       |  
  /      |                             |  
 *       |   I              I          |  
 |       |     I              I        |  
 | I     | Pb     I       Pb           |  
 |       |                             |  
 |   Cs  I          Cs  I              |  
 |     I | I   Pb     I   I   Pb       |  
 |       |                             |  
 |       .---I--------------I----------.  
 Cs     /       Cs                    /   
 | I   /   Pb  I  I       Pb  I      /    
 |    /                             /     
 |   Cs  I          Cs  I          /      
 |  /                             /       
 | /       I              I      /        
 |/                             /         
 Cs-------------Cs-------------*          

Atomic positions and initial magnetic moments

Positions:
   0 Cs     0.000000    0.000000    0.000000    ( 0.0000,  0.0000,  0.0000)
   1 Pb     3.090000    3.090000    3.090000    ( 0.0000,  0.0000,  0.0000)
   2 I      3.090000    0.000000    3.090000    ( 0.0000,  0.0000,  0.0000)
   3 I      0.000000    3.090000    3.140000    ( 0.0000,  0.0000,  0.0000)
   4 I      3.090000    3.090000    0.000000    ( 0.0000,  0.0000,  0.0000)
   5 Cs     0.000000    0.000000    6.180000    ( 0.0000,  0.0000,  0.0000)
   6 Pb     3.090000    3.090000    9.270000    ( 0.0000,  0.0000,  0.0000)
   7 I      3.090000    0.000000    9.270000    ( 0.0000,  0.0000,  0.0000)
   8 I      0.000000    3.090000    9.270000    ( 0.0000,  0.0000,  0.0000)
   9 I      3.090000    3.090000    6.180000    ( 0.0000,  0.0000,  0.0000)
  10 Cs     0.000000    6.180000    0.000000    ( 0.0000,  0.0000,  0.0000)
  11 Pb     3.090000    9.270000    3.090000    ( 0.0000,  0.0000,  0.0000)
  12 I      3.090000    6.180000    3.090000    ( 0.0000,  0.0000,  0.0000)
  13 I      0.000000    9.270000    3.090000    ( 0.0000,  0.0000,  0.0000)
  14 I      3.090000    9.270000    0.000000    ( 0.0000,  0.0000,  0.0000)
  15 Cs     0.000000    6.180000    6.180000    ( 0.0000,  0.0000,  0.0000)
  16 Pb     3.090000    9.270000    9.270000    ( 0.0000,  0.0000,  0.0000)
  17 I      3.090000    6.180000    9.270000    ( 0.0000,  0.0000,  0.0000)
  18 I      0.000000    9.270000    9.270000    ( 0.0000,  0.0000,  0.0000)
  19 I      3.090000    9.270000    6.180000    ( 0.0000,  0.0000,  0.0000)
  20 Cs     6.180000    0.000000    0.000000    ( 0.0000,  0.0000,  0.0000)
  21 Pb     9.270000    3.090000    3.090000    ( 0.0000,  0.0000,  0.0000)
  22 I      9.270000    0.000000    3.090000    ( 0.0000,  0.0000,  0.0000)
  23 I      6.180000    3.090000    3.090000    ( 0.0000,  0.0000,  0.0000)
  24 I      9.270000    3.090000    0.000000    ( 0.0000,  0.0000,  0.0000)
  25 Cs     6.180000    0.000000    6.180000    ( 0.0000,  0.0000,  0.0000)
  26 Pb     9.270000    3.090000    9.270000    ( 0.0000,  0.0000,  0.0000)
  27 I      9.270000    0.000000    9.270000    ( 0.0000,  0.0000,  0.0000)
  28 I      6.180000    3.090000    9.270000    ( 0.0000,  0.0000,  0.0000)
  29 I      9.270000    3.090000    6.180000    ( 0.0000,  0.0000,  0.0000)
  30 Cs     6.180000    6.180000    0.000000    ( 0.0000,  0.0000,  0.0000)
  31 Pb     9.270000    9.270000    3.090000    ( 0.0000,  0.0000,  0.0000)
  32 I      9.270000    6.180000    3.090000    ( 0.0000,  0.0000,  0.0000)
  33 I      6.180000    9.270000    3.090000    ( 0.0000,  0.0000,  0.0000)
  34 I      9.270000    9.270000    0.000000    ( 0.0000,  0.0000,  0.0000)
  35 Cs     6.180000    6.180000    6.180000    ( 0.0000,  0.0000,  0.0000)
  36 Pb     9.270000    9.270000    9.270000    ( 0.0000,  0.0000,  0.0000)
  37 I      9.270000    6.180000    9.270000    ( 0.0000,  0.0000,  0.0000)
  38 I      6.180000    9.270000    9.270000    ( 0.0000,  0.0000,  0.0000)
  39 I      9.270000    9.270000    6.180000    ( 0.0000,  0.0000,  0.0000)

Unit cell:
           periodic     x           y           z      points  spacing
  1. axis:    yes   12.360000    0.000000    0.000000    63     0.1962
  2. axis:    yes    0.000000   12.360000    0.000000    63     0.1962
  3. axis:    yes    0.000000    0.000000   12.360000    63     0.1962

  Lengths:  12.360000  12.360000  12.360000
  Angles:   90.000000  90.000000  90.000000

Effective grid spacing dv^(1/3) = 0.1962

     iter     time        total  log10-change:
                         energy   eigst   dens
iter:   1 18:42:45  -112.430847   -3.86
iter:   2 18:46:48  -112.430750   -5.00  -3.53
iter:   3 18:50:53  -112.430307   -5.05  -3.57
iter:   4 18:54:58  -112.430265   -6.60  -3.89
iter:   5 18:59:01  -112.430272   -6.02  -4.01c
iter:   6 19:03:04  -112.430250   -6.61  -3.99
iter:   7 19:07:08  -112.430251   -7.00  -4.34c
iter:   8 19:11:12  -112.430249c  -7.91c -4.43c

Converged after 8 iterations.

Dipole moment: (0.000000, -0.000027, -0.008830) |e|*Ang

Energy contributions relative to reference atoms: (reference = -10877575.414791)

Kinetic:       +306.775643
Potential:     -296.196247
External:        +0.000000
XC:            -122.145989
Entropy (-ST):   -0.000003
Local:           -0.863654
SIC:             +0.000000
--------------------------
Free energy:   -112.430250
Extrapolated:  -112.430249

Showing only first 2 kpts
 Kpt  Band  Eigenvalues  Occupancy
  0   174      1.84411    2.00000
  0   175      1.87310    2.00000
  0   176      5.56462    0.00000
  0   177      5.57054    0.00000

  1   174      2.28385    2.00000
  1   175      2.41700    2.00000
  1   176      4.56406    0.00000
  1   177      4.78872    0.00000


Fermi level: 3.71660

Gap: 1.089 eV
Transition (v -> c):
  (s=0, k=13, n=175, [0.00, 0.00, 0.00]) -> (s=0, k=13, n=176, [0.00, 0.00, 0.00])
No difference between direct/indirect transitions

Forces in eV/Ang:
  0 Cs   -0.00000   -0.00478   -0.00073
  1 Pb   -0.00200    0.00057    0.00465
  2 I     0.00009   -0.00006   -0.00195
  3 I    -0.00000    0.00052   -0.02343
  4 I    -0.00291    0.00014    0.00214
  5 Cs   -0.00000    0.00466   -0.00028
  6 Pb    0.00031    0.00054   -0.00150
  7 I     0.00003   -0.00008    0.00281
  8 I     0.00001    0.00012   -0.00085
  9 I     0.00350    0.00013    0.00274
 10 Cs   -0.00000    0.00478   -0.00068
 11 Pb    0.00028   -0.00064   -0.00478
 12 I     0.00009    0.00011   -0.00195
 13 I     0.00001   -0.00015   -0.00269
 14 I    -0.00016   -0.00017   -0.00042
 15 Cs    0.00000   -0.00467   -0.00033
 16 Pb    0.00015   -0.00051    0.00580
 17 I     0.00001    0.00004    0.00281
 18 I    -0.00001   -0.00013    0.00392
 19 I     0.00021   -0.00016   -0.00031
 20 Cs    0.00000    0.00058   -0.00041
 21 Pb    0.00200    0.00057    0.00464
 22 I    -0.00009   -0.00004   -0.00195
 23 I     0.00001    0.00019   -0.00389
 24 I     0.00291    0.00013    0.00214
 25 Cs   -0.00000   -0.00051   -0.00040
 26 Pb   -0.00031    0.00055   -0.00148
 27 I    -0.00003   -0.00009    0.00281
 28 I    -0.00001    0.00020    0.00802
 29 I    -0.00350    0.00013    0.00272
 30 Cs    0.00000   -0.00059   -0.00038
 31 Pb   -0.00028   -0.00064   -0.00478
 32 I    -0.00009    0.00009   -0.00195
 33 I    -0.00001   -0.00015   -0.00292
 34 I     0.00016   -0.00017   -0.00044
 35 Cs   -0.00000    0.00049   -0.00043
 36 Pb   -0.00015   -0.00051    0.00579
 37 I    -0.00001    0.00006    0.00281
 38 I     0.00001   -0.00011    0.00323
 39 I    -0.00020   -0.00017   -0.00029

System changes: positions 

Initializing position-dependent things.

Density initialized from wave functions
         .-----------------------------.  
        /|                             |  
       / |                             |  
      /  |                             |  
     /   |                             |  
    /    |                             |  
   /   I |     Pb     I       Pb       |  
  /      |                             |  
 *       |   I              I          |  
 |       |     I              I        |  
 | I     | Pb     I       Pb           |  
 |       |                             |  
 |   Cs  I          Cs  I              |  
 |     I | I   Pb     I   I   Pb       |  
 |       |                             |  
 |       .---I--------------I----------.  
 Cs     /       Cs                    /   
 | I   /   Pb  I  I       Pb  I      /    
 |    /                             /     
 |   Cs  I          Cs  I          /      
 |  /                             /       
 | /      I               I      /        
 |/                             /         
 Cs-------------Cs-------------*          

Atomic positions and initial magnetic moments

Positions:
   0 Cs     0.000000    0.000000    0.000000    ( 0.0000,  0.0000,  0.0000)
   1 Pb     3.090000    3.090000    3.090000    ( 0.0000,  0.0000,  0.0000)
   2 I      3.090000    0.000000    3.090000    ( 0.0000,  0.0000,  0.0000)
   3 I      0.000000    3.090000    3.090000    ( 0.0000,  0.0000,  0.0000)
   4 I      3.040000    3.090000    0.000000    ( 0.0000,  0.0000,  0.0000)
   5 Cs     0.000000    0.000000    6.180000    ( 0.0000,  0.0000,  0.0000)
   6 Pb     3.090000    3.090000    9.270000    ( 0.0000,  0.0000,  0.0000)
   7 I      3.090000    0.000000    9.270000    ( 0.0000,  0.0000,  0.0000)
   8 I      0.000000    3.090000    9.270000    ( 0.0000,  0.0000,  0.0000)
   9 I      3.090000    3.090000    6.180000    ( 0.0000,  0.0000,  0.0000)
  10 Cs     0.000000    6.180000    0.000000    ( 0.0000,  0.0000,  0.0000)
  11 Pb     3.090000    9.270000    3.090000    ( 0.0000,  0.0000,  0.0000)
  12 I      3.090000    6.180000    3.090000    ( 0.0000,  0.0000,  0.0000)
  13 I      0.000000    9.270000    3.090000    ( 0.0000,  0.0000,  0.0000)
  14 I      3.090000    9.270000    0.000000    ( 0.0000,  0.0000,  0.0000)
  15 Cs     0.000000    6.180000    6.180000    ( 0.0000,  0.0000,  0.0000)
  16 Pb     3.090000    9.270000    9.270000    ( 0.0000,  0.0000,  0.0000)
  17 I      3.090000    6.180000    9.270000    ( 0.0000,  0.0000,  0.0000)
  18 I      0.000000    9.270000    9.270000    ( 0.0000,  0.0000,  0.0000)
  19 I      3.090000    9.270000    6.180000    ( 0.0000,  0.0000,  0.0000)
  20 Cs     6.180000    0.000000    0.000000    ( 0.0000,  0.0000,  0.0000)
  21 Pb     9.270000    3.090000    3.090000    ( 0.0000,  0.0000,  0.0000)
  22 I      9.270000    0.000000    3.090000    ( 0.0000,  0.0000,  0.0000)
  23 I      6.180000    3.090000    3.090000    ( 0.0000,  0.0000,  0.0000)
  24 I      9.270000    3.090000    0.000000    ( 0.0000,  0.0000,  0.0000)
  25 Cs     6.180000    0.000000    6.180000    ( 0.0000,  0.0000,  0.0000)
  26 Pb     9.270000    3.090000    9.270000    ( 0.0000,  0.0000,  0.0000)
  27 I      9.270000    0.000000    9.270000    ( 0.0000,  0.0000,  0.0000)
  28 I      6.180000    3.090000    9.270000    ( 0.0000,  0.0000,  0.0000)
  29 I      9.270000    3.090000    6.180000    ( 0.0000,  0.0000,  0.0000)
  30 Cs     6.180000    6.180000    0.000000    ( 0.0000,  0.0000,  0.0000)
  31 Pb     9.270000    9.270000    3.090000    ( 0.0000,  0.0000,  0.0000)
  32 I      9.270000    6.180000    3.090000    ( 0.0000,  0.0000,  0.0000)
  33 I      6.180000    9.270000    3.090000    ( 0.0000,  0.0000,  0.0000)
  34 I      9.270000    9.270000    0.000000    ( 0.0000,  0.0000,  0.0000)
  35 Cs     6.180000    6.180000    6.180000    ( 0.0000,  0.0000,  0.0000)
  36 Pb     9.270000    9.270000    9.270000    ( 0.0000,  0.0000,  0.0000)
  37 I      9.270000    6.180000    9.270000    ( 0.0000,  0.0000,  0.0000)
  38 I      6.180000    9.270000    9.270000    ( 0.0000,  0.0000,  0.0000)
  39 I      9.270000    9.270000    6.180000    ( 0.0000,  0.0000,  0.0000)

Unit cell:
           periodic     x           y           z      points  spacing
  1. axis:    yes   12.360000    0.000000    0.000000    63     0.1962
  2. axis:    yes    0.000000   12.360000    0.000000    63     0.1962
  3. axis:    yes    0.000000    0.000000   12.360000    63     0.1962

  Lengths:  12.360000  12.360000  12.360000
  Angles:   90.000000  90.000000  90.000000

Effective grid spacing dv^(1/3) = 0.1962

     iter     time        total  log10-change:
                         energy   eigst   dens
iter:   1 19:16:48  -112.430668   -4.15
iter:   2 19:20:52  -112.430591   -5.26  -3.59
iter:   3 19:24:55  -112.430287   -5.27  -3.63
iter:   4 19:28:58  -112.430256   -6.78  -3.99
iter:   5 19:33:01  -112.430271   -6.24  -4.13c
iter:   6 19:37:04  -112.430248   -6.88  -4.06c
iter:   7 19:41:08  -112.430251   -7.06  -4.39c
iter:   8 19:45:12  -112.430249c  -7.99c -4.49c

Converged after 8 iterations.

Dipole moment: (0.007941, 0.000011, 0.000079) |e|*Ang

Energy contributions relative to reference atoms: (reference = -10877575.414791)

Kinetic:       +306.784714
Potential:     -296.203566
External:        +0.000000
XC:            -122.146425
Entropy (-ST):   -0.000003
Local:           -0.864970
SIC:             +0.000000
--------------------------
Free energy:   -112.430250
Extrapolated:  -112.430249

Showing only first 2 kpts
 Kpt  Band  Eigenvalues  Occupancy
  0   174      1.84409    2.00000
  0   175      1.87309    2.00000
  0   176      5.56463    0.00000
  0   177      5.57054    0.00000

  1   174      2.28601    2.00000
  1   175      2.41690    2.00000
  1   176      4.56430    0.00000
  1   177      4.78813    0.00000


Fermi level: 3.71660

Gap: 1.089 eV
Transition (v -> c):
  (s=0, k=13, n=175, [0.00, 0.00, 0.00]) -> (s=0, k=13, n=176, [0.00, 0.00, 0.00])
No difference between direct/indirect transitions

Forces in eV/Ang:
  0 Cs   -0.00056    0.00183   -0.00024
  1 Pb    0.00083    0.00030   -0.00221
  2 I     0.00247    0.00004    0.00061
  3 I    -0.00433    0.00006    0.01879
  4 I     0.02214    0.00004    0.00080
  5 Cs    0.00015   -0.00018   -0.00040
  6 Pb    0.00145    0.00030   -0.00032
  7 I     0.00254    0.00006   -0.00111
  8 I    -0.00432    0.00004   -0.00638
  9 I     0.00304    0.00005    0.00071
 10 Cs   -0.00056   -0.00183   -0.00024
 11 Pb    0.00349   -0.00030    0.00236
 12 I     0.00247   -0.00005    0.00061
 13 I     0.00012   -0.00004    0.00134
 14 I     0.00219   -0.00004    0.00020
 15 Cs    0.00015    0.00018   -0.00040
 16 Pb    0.00346   -0.00030   -0.00280
 17 I     0.00254   -0.00007   -0.00111
 18 I     0.00010   -0.00005   -0.00169
 19 I     0.00180   -0.00005    0.00012
 20 Cs   -0.00022   -0.00202    0.00019
 21 Pb    0.00227    0.00029   -0.00057
 22 I    -0.00218   -0.00001    0.00056
 23 I    -0.00405    0.00005   -0.00475
 24 I    -0.00106    0.00004    0.00083
 25 Cs    0.00006    0.00041    0.00018
 26 Pb    0.00160    0.00030   -0.00196
 27 I    -0.00223   -0.00003   -0.00105
 28 I    -0.00403    0.00005    0.00389
 29 I    -0.00602    0.00005    0.00070
 30 Cs   -0.00022    0.00202    0.00019
 31 Pb   -0.00377   -0.00030    0.00231
 32 I    -0.00219    0.00001    0.00056
 33 I     0.00013   -0.00005    0.00077
 34 I    -0.00273   -0.00004    0.00018
 35 Cs    0.00006   -0.00041    0.00018
 36 Pb   -0.00374   -0.00030   -0.00276
 37 I    -0.00223    0.00002   -0.00105
 38 I     0.00016   -0.00005   -0.00090
 39 I    -0.00194   -0.00005    0.00013

System changes: positions 

Initializing position-dependent things.

Density initialized from wave functions
         .-----------------------------.  
        /|                             |  
       / |                             |  
      /  |                             |  
     /   |                             |  
    /    |                             |  
   /   I |     Pb     I       Pb       |  
  /      |                             |  
 *       |   I              I          |  
 |       |     I              I        |  
 | I     | Pb     I       Pb           |  
 |       |                             |  
 |   Cs  I          Cs  I              |  
 |     I | I   Pb     I   I   Pb       |  
 |       |                             |  
 |       .---I--------------I----------.  
 Cs     /       Cs                    /   
 | I   /   Pb  I  I       Pb  I      /    
 |    /                             /     
 |   Cs  I          Cs  I          /      
 |  /                             /       
 | /       I              I      /        
 |/                             /         
 Cs-------------Cs-------------*          

Atomic positions and initial magnetic moments

Positions:
   0 Cs     0.000000    0.000000    0.000000    ( 0.0000,  0.0000,  0.0000)
   1 Pb     3.090000    3.090000    3.090000    ( 0.0000,  0.0000,  0.0000)
   2 I      3.090000    0.000000    3.090000    ( 0.0000,  0.0000,  0.0000)
   3 I      0.000000    3.090000    3.090000    ( 0.0000,  0.0000,  0.0000)
   4 I      3.140000    3.090000    0.000000    ( 0.0000,  0.0000,  0.0000)
   5 Cs     0.000000    0.000000    6.180000    ( 0.0000,  0.0000,  0.0000)
   6 Pb     3.090000    3.090000    9.270000    ( 0.0000,  0.0000,  0.0000)
   7 I      3.090000    0.000000    9.270000    ( 0.0000,  0.0000,  0.0000)
   8 I      0.000000    3.090000    9.270000    ( 0.0000,  0.0000,  0.0000)
   9 I      3.090000    3.090000    6.180000    ( 0.0000,  0.0000,  0.0000)
  10 Cs     0.000000    6.180000    0.000000    ( 0.0000,  0.0000,  0.0000)
  11 Pb     3.090000    9.270000    3.090000    ( 0.0000,  0.0000,  0.0000)
  12 I      3.090000    6.180000    3.090000    ( 0.0000,  0.0000,  0.0000)
  13 I      0.000000    9.270000    3.090000    ( 0.0000,  0.0000,  0.0000)
  14 I      3.090000    9.270000    0.000000    ( 0.0000,  0.0000,  0.0000)
  15 Cs     0.000000    6.180000    6.180000    ( 0.0000,  0.0000,  0.0000)
  16 Pb     3.090000    9.270000    9.270000    ( 0.0000,  0.0000,  0.0000)
  17 I      3.090000    6.180000    9.270000    ( 0.0000,  0.0000,  0.0000)
  18 I      0.000000    9.270000    9.270000    ( 0.0000,  0.0000,  0.0000)
  19 I      3.090000    9.270000    6.180000    ( 0.0000,  0.0000,  0.0000)
  20 Cs     6.180000    0.000000    0.000000    ( 0.0000,  0.0000,  0.0000)
  21 Pb     9.270000    3.090000    3.090000    ( 0.0000,  0.0000,  0.0000)
  22 I      9.270000    0.000000    3.090000    ( 0.0000,  0.0000,  0.0000)
  23 I      6.180000    3.090000    3.090000    ( 0.0000,  0.0000,  0.0000)
  24 I      9.270000    3.090000    0.000000    ( 0.0000,  0.0000,  0.0000)
  25 Cs     6.180000    0.000000    6.180000    ( 0.0000,  0.0000,  0.0000)
  26 Pb     9.270000    3.090000    9.270000    ( 0.0000,  0.0000,  0.0000)
  27 I      9.270000    0.000000    9.270000    ( 0.0000,  0.0000,  0.0000)
  28 I      6.180000    3.090000    9.270000    ( 0.0000,  0.0000,  0.0000)
  29 I      9.270000    3.090000    6.180000    ( 0.0000,  0.0000,  0.0000)
  30 Cs     6.180000    6.180000    0.000000    ( 0.0000,  0.0000,  0.0000)
  31 Pb     9.270000    9.270000    3.090000    ( 0.0000,  0.0000,  0.0000)
  32 I      9.270000    6.180000    3.090000    ( 0.0000,  0.0000,  0.0000)
  33 I      6.180000    9.270000    3.090000    ( 0.0000,  0.0000,  0.0000)
  34 I      9.270000    9.270000    0.000000    ( 0.0000,  0.0000,  0.0000)
  35 Cs     6.180000    6.180000    6.180000    ( 0.0000,  0.0000,  0.0000)
  36 Pb     9.270000    9.270000    9.270000    ( 0.0000,  0.0000,  0.0000)
  37 I      9.270000    6.180000    9.270000    ( 0.0000,  0.0000,  0.0000)
  38 I      6.180000    9.270000    9.270000    ( 0.0000,  0.0000,  0.0000)
  39 I      9.270000    9.270000    6.180000    ( 0.0000,  0.0000,  0.0000)

Unit cell:
           periodic     x           y           z      points  spacing
  1. axis:    yes   12.360000    0.000000    0.000000    63     0.1962
  2. axis:    yes    0.000000   12.360000    0.000000    63     0.1962
  3. axis:    yes    0.000000    0.000000   12.360000    63     0.1962

  Lengths:  12.360000  12.360000  12.360000
  Angles:   90.000000  90.000000  90.000000

Effective grid spacing dv^(1/3) = 0.1962

     iter     time        total  log10-change:
                         energy   eigst   dens
iter:   1 19:50:47  -112.430831   -3.85
iter:   2 19:54:49  -112.430738   -5.00  -3.54
iter:   3 19:58:51  -112.430305   -5.06  -3.58
iter:   4 20:02:55  -112.430265   -6.62  -3.90
iter:   5 20:07:00  -112.430273   -6.00  -4.01c
iter:   6 20:11:03  -112.430249   -6.62  -3.98
iter:   7 20:15:08  -112.430251   -6.95  -4.33c
iter:   8 20:19:12  -112.430249c  -7.86c -4.42c

Converged after 8 iterations.

Dipole moment: (-0.008827, -0.000021, 0.000003) |e|*Ang

Energy contributions relative to reference atoms: (reference = -10877575.414791)

Kinetic:       +306.775659
Potential:     -296.196243
External:        +0.000000
XC:            -122.145989
Entropy (-ST):   -0.000003
Local:           -0.863674
SIC:             +0.000000
--------------------------
Free energy:   -112.430250
Extrapolated:  -112.430249

Showing only first 2 kpts
 Kpt  Band  Eigenvalues  Occupancy
  0   174      1.84410    2.00000
  0   175      1.87310    2.00000
  0   176      5.56462    0.00000
  0   177      5.57054    0.00000

  1   174      2.28601    2.00000
  1   175      2.41690    2.00000
  1   176      4.56430    0.00000
  1   177      4.78813    0.00000


Fermi level: 3.71660

Gap: 1.089 eV
Transition (v -> c):
  (s=0, k=13, n=175, [0.00, 0.00, 0.00]) -> (s=0, k=13, n=176, [0.00, 0.00, 0.00])
No difference between direct/indirect transitions

Forces in eV/Ang:
  0 Cs   -0.00075   -0.00479    0.00000
  1 Pb    0.00445    0.00020   -0.00170
  2 I    -0.00197   -0.00008    0.00022
  3 I     0.00216    0.00001   -0.00241
  4 I    -0.02322    0.00001    0.00005
  5 Cs   -0.00038    0.00056   -0.00001
  6 Pb    0.00445    0.00020    0.00159
  7 I    -0.00197   -0.00008   -0.00025
  8 I     0.00215    0.00001    0.00282
  9 I    -0.00387    0.00001    0.00005
 10 Cs   -0.00075    0.00478    0.00000
 11 Pb   -0.00485   -0.00021    0.00066
 12 I    -0.00197    0.00008    0.00022
 13 I    -0.00041   -0.00001    0.00000
 14 I    -0.00270   -0.00001   -0.00000
 15 Cs   -0.00038   -0.00056   -0.00001
 16 Pb   -0.00486   -0.00020   -0.00065
 17 I    -0.00198    0.00008   -0.00025
 18 I    -0.00042   -0.00001   -0.00002
 19 I    -0.00295   -0.00001   -0.00000
 20 Cs   -0.00033    0.00465   -0.00000
 21 Pb   -0.00132    0.00020    0.00062
 22 I     0.00283   -0.00007    0.00013
 23 I     0.00273    0.00001    0.00364
 24 I    -0.00076    0.00001    0.00005
 25 Cs   -0.00041   -0.00048   -0.00000
 26 Pb   -0.00130    0.00020   -0.00074
 27 I     0.00283   -0.00008   -0.00016
 28 I     0.00273    0.00001   -0.00364
 29 I     0.00796    0.00001    0.00005
 30 Cs   -0.00033   -0.00466   -0.00000
 31 Pb    0.00583   -0.00020    0.00052
 32 I     0.00283    0.00007    0.00013
 33 I    -0.00030   -0.00001    0.00037
 34 I     0.00393   -0.00001   -0.00001
 35 Cs   -0.00040    0.00048   -0.00000
 36 Pb    0.00584   -0.00020   -0.00051
 37 I     0.00283    0.00008   -0.00016
 38 I    -0.00029   -0.00001   -0.00036
 39 I     0.00324   -0.00001   -0.00000

System changes: positions 

Initializing position-dependent things.

Density initialized from wave functions
         .-----------------------------.  
        /|                             |  
       / |                             |  
      /  |                             |  
     /   |                             |  
    /    |                             |  
   /   I |     Pb     I       Pb       |  
  /      |                             |  
 *       |   I              I          |  
 |       |     I              I        |  
 | I     | Pb     I       Pb           |  
 |       |                             |  
 |   Cs  I          Cs  I              |  
 |     I | I   Pb     I   I   Pb       |  
 |       |                             |  
 |       .---I--------------I----------.  
 Cs     /       Cs                    /   
 | I   /   Pb  I  I       Pb  I      /    
 |    /                             /     
 |   Cs  I          Cs  I          /      
 |  /                             /       
 | /      I               I      /        
 |/                             /         
 Cs-------------Cs-------------*          

Atomic positions and initial magnetic moments

Positions:
   0 Cs     0.000000    0.000000    0.000000    ( 0.0000,  0.0000,  0.0000)
   1 Pb     3.090000    3.090000    3.090000    ( 0.0000,  0.0000,  0.0000)
   2 I      3.090000    0.000000    3.090000    ( 0.0000,  0.0000,  0.0000)
   3 I      0.000000    3.090000    3.090000    ( 0.0000,  0.0000,  0.0000)
   4 I      3.090000    3.040000    0.000000    ( 0.0000,  0.0000,  0.0000)
   5 Cs     0.000000    0.000000    6.180000    ( 0.0000,  0.0000,  0.0000)
   6 Pb     3.090000    3.090000    9.270000    ( 0.0000,  0.0000,  0.0000)
   7 I      3.090000    0.000000    9.270000    ( 0.0000,  0.0000,  0.0000)
   8 I      0.000000    3.090000    9.270000    ( 0.0000,  0.0000,  0.0000)
   9 I      3.090000    3.090000    6.180000    ( 0.0000,  0.0000,  0.0000)
  10 Cs     0.000000    6.180000    0.000000    ( 0.0000,  0.0000,  0.0000)
  11 Pb     3.090000    9.270000    3.090000    ( 0.0000,  0.0000,  0.0000)
  12 I      3.090000    6.180000    3.090000    ( 0.0000,  0.0000,  0.0000)
  13 I      0.000000    9.270000    3.090000    ( 0.0000,  0.0000,  0.0000)
  14 I      3.090000    9.270000    0.000000    ( 0.0000,  0.0000,  0.0000)
  15 Cs     0.000000    6.180000    6.180000    ( 0.0000,  0.0000,  0.0000)
  16 Pb     3.090000    9.270000    9.270000    ( 0.0000,  0.0000,  0.0000)
  17 I      3.090000    6.180000    9.270000    ( 0.0000,  0.0000,  0.0000)
  18 I      0.000000    9.270000    9.270000    ( 0.0000,  0.0000,  0.0000)
  19 I      3.090000    9.270000    6.180000    ( 0.0000,  0.0000,  0.0000)
  20 Cs     6.180000    0.000000    0.000000    ( 0.0000,  0.0000,  0.0000)
  21 Pb     9.270000    3.090000    3.090000    ( 0.0000,  0.0000,  0.0000)
  22 I      9.270000    0.000000    3.090000    ( 0.0000,  0.0000,  0.0000)
  23 I      6.180000    3.090000    3.090000    ( 0.0000,  0.0000,  0.0000)
  24 I      9.270000    3.090000    0.000000    ( 0.0000,  0.0000,  0.0000)
  25 Cs     6.180000    0.000000    6.180000    ( 0.0000,  0.0000,  0.0000)
  26 Pb     9.270000    3.090000    9.270000    ( 0.0000,  0.0000,  0.0000)
  27 I      9.270000    0.000000    9.270000    ( 0.0000,  0.0000,  0.0000)
  28 I      6.180000    3.090000    9.270000    ( 0.0000,  0.0000,  0.0000)
  29 I      9.270000    3.090000    6.180000    ( 0.0000,  0.0000,  0.0000)
  30 Cs     6.180000    6.180000    0.000000    ( 0.0000,  0.0000,  0.0000)
  31 Pb     9.270000    9.270000    3.090000    ( 0.0000,  0.0000,  0.0000)
  32 I      9.270000    6.180000    3.090000    ( 0.0000,  0.0000,  0.0000)
  33 I      6.180000    9.270000    3.090000    ( 0.0000,  0.0000,  0.0000)
  34 I      9.270000    9.270000    0.000000    ( 0.0000,  0.0000,  0.0000)
  35 Cs     6.180000    6.180000    6.180000    ( 0.0000,  0.0000,  0.0000)
  36 Pb     9.270000    9.270000    9.270000    ( 0.0000,  0.0000,  0.0000)
  37 I      9.270000    6.180000    9.270000    ( 0.0000,  0.0000,  0.0000)
  38 I      6.180000    9.270000    9.270000    ( 0.0000,  0.0000,  0.0000)
  39 I      9.270000    9.270000    6.180000    ( 0.0000,  0.0000,  0.0000)

Unit cell:
           periodic     x           y           z      points  spacing
  1. axis:    yes   12.360000    0.000000    0.000000    63     0.1962
  2. axis:    yes    0.000000   12.360000    0.000000    63     0.1962
  3. axis:    yes    0.000000    0.000000   12.360000    63     0.1962

  Lengths:  12.360000  12.360000  12.360000
  Angles:   90.000000  90.000000  90.000000

Effective grid spacing dv^(1/3) = 0.1962

     iter     time        total  log10-change:
                         energy   eigst   dens
iter:   1 20:24:49  -112.430553   -4.15
iter:   2 20:28:52  -112.430504   -5.27  -3.66
iter:   3 20:32:55  -112.430273   -5.35  -3.70
iter:   4 20:36:58  -112.430257   -6.89  -4.06c
iter:   5 20:41:01  -112.430263   -6.26  -4.15c
iter:   6 20:45:04  -112.430249   -6.82  -4.11c
iter:   7 20:49:07  -112.430250   -7.21  -4.47c
iter:   8 20:53:09  -112.430249c  -8.02c -4.54c

Converged after 8 iterations.

Dipole moment: (0.000225, 0.008106, -0.000000) |e|*Ang

Energy contributions relative to reference atoms: (reference = -10877575.414791)

Kinetic:       +306.785409
Potential:     -296.204289
External:        +0.000000
XC:            -122.146521
Entropy (-ST):   -0.000003
Local:           -0.864846
SIC:             +0.000000
--------------------------
Free energy:   -112.430250
Extrapolated:  -112.430249

Showing only first 2 kpts
 Kpt  Band  Eigenvalues  Occupancy
  0   174      1.84409    2.00000
  0   175      1.87310    2.00000
  0   176      5.56463    0.00000
  0   177      5.57054    0.00000

  1   174      2.28601    2.00000
  1   175      2.41690    2.00000
  1   176      4.56430    0.00000
  1   177      4.78813    0.00000


Fermi level: 3.71660

Gap: 1.089 eV
Transition (v -> c):
  (s=0, k=13, n=175, [0.00, 0.00, 0.00]) -> (s=0, k=13, n=176, [0.00, 0.00, 0.00])
No difference between direct/indirect transitions

Forces in eV/Ang:
  0 Cs    0.00235    0.00129   -0.00000
  1 Pb   -0.00165    0.00003   -0.00143
  2 I     0.00038   -0.00410    0.00622
  3 I     0.00106    0.00217   -0.00177
  4 I     0.00827    0.01945   -0.00000
  5 Cs    0.00025   -0.00036   -0.00000
  6 Pb   -0.00165    0.00003    0.00143
  7 I     0.00038   -0.00411   -0.00623
  8 I     0.00106    0.00217    0.00178
  9 I     0.00183    0.00220    0.00000
 10 Cs   -0.00229   -0.00099   -0.00000
 11 Pb    0.00266    0.00201    0.00035
 12 I     0.00042   -0.00375   -0.00567
 13 I     0.00015   -0.00206   -0.00001
 14 I     0.00101   -0.00161    0.00000
 15 Cs    0.00024    0.00062   -0.00000
 16 Pb    0.00266    0.00201   -0.00035
 17 I     0.00042   -0.00375    0.00567
 18 I     0.00015   -0.00206    0.00001
 19 I     0.00127   -0.00521   -0.00000
 20 Cs   -0.00196   -0.00137   -0.00000
 21 Pb   -0.00205    0.00327    0.00032
 22 I    -0.00112    0.00014    0.00032
 23 I     0.00109    0.00220    0.00192
 24 I     0.00107    0.00202    0.00000
 25 Cs    0.00019    0.00065   -0.00000
 26 Pb   -0.00206    0.00326   -0.00032
 27 I    -0.00112    0.00014   -0.00032
 28 I     0.00109    0.00220   -0.00192
 29 I    -0.00276    0.00181    0.00000
 30 Cs    0.00247    0.00147   -0.00000
 31 Pb   -0.00320   -0.00358    0.00025
 32 I    -0.00113    0.00017   -0.00020
 33 I     0.00024   -0.00206    0.00010
 34 I    -0.00147   -0.00267    0.00000
 35 Cs    0.00021   -0.00039   -0.00000
 36 Pb   -0.00320   -0.00358   -0.00025
 37 I    -0.00113    0.00017    0.00020
 38 I     0.00024   -0.00206   -0.00009
 39 I    -0.00143   -0.00191    0.00000

System changes: positions 

Initializing position-dependent things.

Density initialized from wave functions
         .-----------------------------.  
        /|                             |  
       / |                             |  
      /  |                             |  
     /   |                             |  
    /    |                             |  
   /   I |     Pb     I       Pb       |  
  /      |                             |  
 *       |   I              I          |  
 |       |     I              I        |  
 | I     | Pb     I       Pb           |  
 |       |                             |  
 |   Cs  I          Cs  I              |  
 |     I | I   Pb     I   I   Pb       |  
 |       |                             |  
 |       .---I--------------I----------.  
 Cs     /       Cs                    /   
 | I   /   Pb  I  I       Pb  I      /    
 |    /                             /     
 |   Cs  I          Cs  I          /      
 |  /                             /       
 | /       I              I      /        
 |/                             /         
 Cs-------------Cs-------------*          

Atomic positions and initial magnetic moments

Positions:
   0 Cs     0.000000    0.000000    0.000000    ( 0.0000,  0.0000,  0.0000)
   1 Pb     3.090000    3.090000    3.090000    ( 0.0000,  0.0000,  0.0000)
   2 I      3.090000    0.000000    3.090000    ( 0.0000,  0.0000,  0.0000)
   3 I      0.000000    3.090000    3.090000    ( 0.0000,  0.0000,  0.0000)
   4 I      3.090000    3.140000    0.000000    ( 0.0000,  0.0000,  0.0000)
   5 Cs     0.000000    0.000000    6.180000    ( 0.0000,  0.0000,  0.0000)
   6 Pb     3.090000    3.090000    9.270000    ( 0.0000,  0.0000,  0.0000)
   7 I      3.090000    0.000000    9.270000    ( 0.0000,  0.0000,  0.0000)
   8 I      0.000000    3.090000    9.270000    ( 0.0000,  0.0000,  0.0000)
   9 I      3.090000    3.090000    6.180000    ( 0.0000,  0.0000,  0.0000)
  10 Cs     0.000000    6.180000    0.000000    ( 0.0000,  0.0000,  0.0000)
  11 Pb     3.090000    9.270000    3.090000    ( 0.0000,  0.0000,  0.0000)
  12 I      3.090000    6.180000    3.090000    ( 0.0000,  0.0000,  0.0000)
  13 I      0.000000    9.270000    3.090000    ( 0.0000,  0.0000,  0.0000)
  14 I      3.090000    9.270000    0.000000    ( 0.0000,  0.0000,  0.0000)
  15 Cs     0.000000    6.180000    6.180000    ( 0.0000,  0.0000,  0.0000)
  16 Pb     3.090000    9.270000    9.270000    ( 0.0000,  0.0000,  0.0000)
  17 I      3.090000    6.180000    9.270000    ( 0.0000,  0.0000,  0.0000)
  18 I      0.000000    9.270000    9.270000    ( 0.0000,  0.0000,  0.0000)
  19 I      3.090000    9.270000    6.180000    ( 0.0000,  0.0000,  0.0000)
  20 Cs     6.180000    0.000000    0.000000    ( 0.0000,  0.0000,  0.0000)
  21 Pb     9.270000    3.090000    3.090000    ( 0.0000,  0.0000,  0.0000)
  22 I      9.270000    0.000000    3.090000    ( 0.0000,  0.0000,  0.0000)
  23 I      6.180000    3.090000    3.090000    ( 0.0000,  0.0000,  0.0000)
  24 I      9.270000    3.090000    0.000000    ( 0.0000,  0.0000,  0.0000)
  25 Cs     6.180000    0.000000    6.180000    ( 0.0000,  0.0000,  0.0000)
  26 Pb     9.270000    3.090000    9.270000    ( 0.0000,  0.0000,  0.0000)
  27 I      9.270000    0.000000    9.270000    ( 0.0000,  0.0000,  0.0000)
  28 I      6.180000    3.090000    9.270000    ( 0.0000,  0.0000,  0.0000)
  29 I      9.270000    3.090000    6.180000    ( 0.0000,  0.0000,  0.0000)
  30 Cs     6.180000    6.180000    0.000000    ( 0.0000,  0.0000,  0.0000)
  31 Pb     9.270000    9.270000    3.090000    ( 0.0000,  0.0000,  0.0000)
  32 I      9.270000    6.180000    3.090000    ( 0.0000,  0.0000,  0.0000)
  33 I      6.180000    9.270000    3.090000    ( 0.0000,  0.0000,  0.0000)
  34 I      9.270000    9.270000    0.000000    ( 0.0000,  0.0000,  0.0000)
  35 Cs     6.180000    6.180000    6.180000    ( 0.0000,  0.0000,  0.0000)
  36 Pb     9.270000    9.270000    9.270000    ( 0.0000,  0.0000,  0.0000)
  37 I      9.270000    6.180000    9.270000    ( 0.0000,  0.0000,  0.0000)
  38 I      6.180000    9.270000    9.270000    ( 0.0000,  0.0000,  0.0000)
  39 I      9.270000    9.270000    6.180000    ( 0.0000,  0.0000,  0.0000)

Unit cell:
           periodic     x           y           z      points  spacing
  1. axis:    yes   12.360000    0.000000    0.000000    63     0.1962
  2. axis:    yes    0.000000   12.360000    0.000000    63     0.1962
  3. axis:    yes    0.000000    0.000000   12.360000    63     0.1962

  Lengths:  12.360000  12.360000  12.360000
  Angles:   90.000000  90.000000  90.000000

Effective grid spacing dv^(1/3) = 0.1962

     iter     time        total  log10-change:
                         energy   eigst   dens
iter:   1 20:58:44  -112.430847   -3.85
iter:   2 21:02:47  -112.430750   -5.00  -3.53
iter:   3 21:06:48  -112.430309   -5.05  -3.57
iter:   4 21:10:51  -112.430265   -6.61  -3.89
iter:   5 21:14:56  -112.430273   -6.01  -4.01c
iter:   6 21:19:03  -112.430249   -6.61  -3.98
iter:   7 21:23:08  -112.430251   -6.98  -4.33c
iter:   8 21:27:12  -112.430249c  -7.88c -4.42c

Converged after 8 iterations.

Dipole moment: (-0.000026, -0.008834, -0.000000) |e|*Ang

Energy contributions relative to reference atoms: (reference = -10877575.414791)

Kinetic:       +306.775715
Potential:     -296.196313
External:        +0.000000
XC:            -122.145996
Entropy (-ST):   -0.000003
Local:           -0.863653
SIC:             +0.000000
--------------------------
Free energy:   -112.430250
Extrapolated:  -112.430249

Showing only first 2 kpts
 Kpt  Band  Eigenvalues  Occupancy
  0   174      1.84410    2.00000
  0   175      1.87310    2.00000
  0   176      5.56462    0.00000
  0   177      5.57054    0.00000

  1   174      2.28601    2.00000
  1   175      2.41690    2.00000
  1   176      4.56430    0.00000
  1   177      4.78813    0.00000


Fermi level: 3.71660

Gap: 1.089 eV
Transition (v -> c):
  (s=0, k=13, n=175, [0.00, 0.00, 0.00]) -> (s=0, k=13, n=176, [0.00, 0.00, 0.00])
No difference between direct/indirect transitions

Forces in eV/Ang:
  0 Cs   -0.00481   -0.00074    0.00000
  1 Pb    0.00055    0.00465   -0.00198
  2 I     0.00012    0.00214   -0.00288
  3 I    -0.00005   -0.00194    0.00009
  4 I     0.00051   -0.02326    0.00000
  5 Cs    0.00058   -0.00041    0.00000
  6 Pb    0.00056    0.00465    0.00198
  7 I     0.00012    0.00213    0.00288
  8 I    -0.00006   -0.00194   -0.00009
  9 I     0.00018   -0.00391   -0.00000
 10 Cs    0.00469   -0.00029    0.00000
 11 Pb    0.00054   -0.00148    0.00032
 12 I     0.00012    0.00273    0.00348
 13 I    -0.00008    0.00280    0.00004
 14 I     0.00012   -0.00089   -0.00000
 15 Cs   -0.00051   -0.00040   -0.00000
 16 Pb    0.00053   -0.00148   -0.00032
 17 I     0.00013    0.00273   -0.00348
 18 I    -0.00008    0.00280   -0.00004
 19 I     0.00019    0.00802    0.00000
 20 Cs    0.00481   -0.00069    0.00000
 21 Pb   -0.00061   -0.00479    0.00029
 22 I    -0.00016   -0.00043   -0.00015
 23 I     0.00010   -0.00194    0.00010
 24 I    -0.00014   -0.00269    0.00000
 25 Cs   -0.00059   -0.00038    0.00000
 26 Pb   -0.00062   -0.00479   -0.00029
 27 I    -0.00016   -0.00043    0.00015
 28 I     0.00010   -0.00194   -0.00010
 29 I    -0.00014   -0.00292   -0.00000
 30 Cs   -0.00469   -0.00034   -0.00000
 31 Pb   -0.00049    0.00580    0.00016
 32 I    -0.00015   -0.00030    0.00021
 33 I     0.00005    0.00281    0.00002
 34 I    -0.00012    0.00391   -0.00000
 35 Cs    0.00049   -0.00043    0.00000
 36 Pb   -0.00049    0.00580   -0.00016
 37 I    -0.00016   -0.00030   -0.00021
 38 I     0.00005    0.00281   -0.00002
 39 I    -0.00010    0.00323    0.00000

System changes: positions 

Initializing position-dependent things.

Density initialized from wave functions
         .-----------------------------.  
        /|                             |  
       / |                             |  
      /  |                             |  
     /   |                             |  
    /    |                             |  
   /   I | I   Pb     I       Pb       |  
  /      |                             |  
 *       |   I              I          |  
 |       |     I              I        |  
 | I     | Pb     I       Pb           |  
 |       |                             |  
 |   Cs  I          Cs  I              |  
 |     I | I   Pb     I   I   Pb       |  
 |       |                             |  
 |       .---I--------------I----------.  
 Cs     /       Cs                    /   
 | I   /   Pb  I  I       Pb  I      /    
 |    /                             /     
 |   Cs  I          Cs  I          /      
 |  /                             /       
 | /                      I      /        
 |/                             /         
 Cs-------------Cs-------------*          

Atomic positions and initial magnetic moments

Positions:
   0 Cs     0.000000    0.000000    0.000000    ( 0.0000,  0.0000,  0.0000)
   1 Pb     3.090000    3.090000    3.090000    ( 0.0000,  0.0000,  0.0000)
   2 I      3.090000    0.000000    3.090000    ( 0.0000,  0.0000,  0.0000)
   3 I      0.000000    3.090000    3.090000    ( 0.0000,  0.0000,  0.0000)
   4 I      3.090000    3.090000   -0.050000    ( 0.0000,  0.0000,  0.0000)
   5 Cs     0.000000    0.000000    6.180000    ( 0.0000,  0.0000,  0.0000)
   6 Pb     3.090000    3.090000    9.270000    ( 0.0000,  0.0000,  0.0000)
   7 I      3.090000    0.000000    9.270000    ( 0.0000,  0.0000,  0.0000)
   8 I      0.000000    3.090000    9.270000    ( 0.0000,  0.0000,  0.0000)
   9 I      3.090000    3.090000    6.180000    ( 0.0000,  0.0000,  0.0000)
  10 Cs     0.000000    6.180000    0.000000    ( 0.0000,  0.0000,  0.0000)
  11 Pb     3.090000    9.270000    3.090000    ( 0.0000,  0.0000,  0.0000)
  12 I      3.090000    6.180000    3.090000    ( 0.0000,  0.0000,  0.0000)
  13 I      0.000000    9.270000    3.090000    ( 0.0000,  0.0000,  0.0000)
  14 I      3.090000    9.270000    0.000000    ( 0.0000,  0.0000,  0.0000)
  15 Cs     0.000000    6.180000    6.180000    ( 0.0000,  0.0000,  0.0000)
  16 Pb     3.090000    9.270000    9.270000    ( 0.0000,  0.0000,  0.0000)
  17 I      3.090000    6.180000    9.270000    ( 0.0000,  0.0000,  0.0000)
  18 I      0.000000    9.270000    9.270000    ( 0.0000,  0.0000,  0.0000)
  19 I      3.090000    9.270000    6.180000    ( 0.0000,  0.0000,  0.0000)
  20 Cs     6.180000    0.000000    0.000000    ( 0.0000,  0.0000,  0.0000)
  21 Pb     9.270000    3.090000    3.090000    ( 0.0000,  0.0000,  0.0000)
  22 I      9.270000    0.000000    3.090000    ( 0.0000,  0.0000,  0.0000)
  23 I      6.180000    3.090000    3.090000    ( 0.0000,  0.0000,  0.0000)
  24 I      9.270000    3.090000    0.000000    ( 0.0000,  0.0000,  0.0000)
  25 Cs     6.180000    0.000000    6.180000    ( 0.0000,  0.0000,  0.0000)
  26 Pb     9.270000    3.090000    9.270000    ( 0.0000,  0.0000,  0.0000)
  27 I      9.270000    0.000000    9.270000    ( 0.0000,  0.0000,  0.0000)
  28 I      6.180000    3.090000    9.270000    ( 0.0000,  0.0000,  0.0000)
  29 I      9.270000    3.090000    6.180000    ( 0.0000,  0.0000,  0.0000)
  30 Cs     6.180000    6.180000    0.000000    ( 0.0000,  0.0000,  0.0000)
  31 Pb     9.270000    9.270000    3.090000    ( 0.0000,  0.0000,  0.0000)
  32 I      9.270000    6.180000    3.090000    ( 0.0000,  0.0000,  0.0000)
  33 I      6.180000    9.270000    3.090000    ( 0.0000,  0.0000,  0.0000)
  34 I      9.270000    9.270000    0.000000    ( 0.0000,  0.0000,  0.0000)
  35 Cs     6.180000    6.180000    6.180000    ( 0.0000,  0.0000,  0.0000)
  36 Pb     9.270000    9.270000    9.270000    ( 0.0000,  0.0000,  0.0000)
  37 I      9.270000    6.180000    9.270000    ( 0.0000,  0.0000,  0.0000)
  38 I      6.180000    9.270000    9.270000    ( 0.0000,  0.0000,  0.0000)
  39 I      9.270000    9.270000    6.180000    ( 0.0000,  0.0000,  0.0000)

Unit cell:
           periodic     x           y           z      points  spacing
  1. axis:    yes   12.360000    0.000000    0.000000    63     0.1962
  2. axis:    yes    0.000000   12.360000    0.000000    63     0.1962
  3. axis:    yes    0.000000    0.000000   12.360000    63     0.1962

  Lengths:  12.360000  12.360000  12.360000
  Angles:   90.000000  90.000000  90.000000

Effective grid spacing dv^(1/3) = 0.1962

     iter     time        total  log10-change:
                         energy   eigst   dens
iter:   1 21:32:50  -112.425392   -4.01
iter:   2 21:36:54  -112.424945   -5.40  -3.34
iter:   3 21:40:58  -112.423678   -4.67  -3.38
iter:   4 21:45:01  -112.423455   -6.17  -3.73
iter:   5 21:49:06  -112.423434   -6.15  -3.92
iter:   6 21:53:10  -112.423418   -6.40  -4.00
iter:   7 21:57:12  -112.423405   -6.72  -4.21c
iter:   8 22:01:13  -112.423404   -7.85c -4.49c
iter:   9 22:05:16  -112.423404c  -7.81c -4.55c

Converged after 9 iterations.

Dipole moment: (-0.000546, -0.000686, 5.457676) |e|*Ang

Energy contributions relative to reference atoms: (reference = -10877575.414791)

Kinetic:       +306.916428
Potential:     -296.312439
External:        +0.000000
XC:            -122.161862
Entropy (-ST):   -0.000003
Local:           -0.865529
SIC:             +0.000000
--------------------------
Free energy:   -112.423405
Extrapolated:  -112.423404

Showing only first 2 kpts
 Kpt  Band  Eigenvalues  Occupancy
  0   174      1.84557    2.00000
  0   175      1.87590    2.00000
  0   176      5.56766    0.00000
  0   177      5.56775    0.00000

  1   174      2.28465    2.00000
  1   175      2.41763    2.00000
  1   176      4.56458    0.00000
  1   177      4.78907    0.00000


Fermi level: 3.71703

Gap: 1.089 eV
Transition (v -> c):
  (s=0, k=13, n=175, [0.00, 0.00, 0.00]) -> (s=0, k=13, n=176, [0.00, 0.00, 0.00])
No difference between direct/indirect transitions

Forces in eV/Ang:
  0 Cs   -0.00102   -0.00040   -0.00159
  1 Pb    0.00011   -0.00118   -0.05727
  2 I    -0.00003    0.00546   -0.00467
  3 I     0.00562   -0.00056   -0.00532
  4 I    -0.00002    0.00375    0.29506
  5 Cs    0.00017    0.00007    0.00212
  6 Pb    0.00011   -0.00129   -0.08460
  7 I    -0.00003   -0.00645   -0.00600
  8 I    -0.00623   -0.00055   -0.00533
  9 I    -0.00003   -0.00094   -0.10575
 10 Cs    0.00049    0.00013   -0.00161
 11 Pb    0.00011    0.00150   -0.00118
 12 I    -0.00003   -0.00576   -0.00594
 13 I     0.00233    0.00076   -0.00046
 14 I    -0.00003   -0.00022    0.00658
 15 Cs    0.00015   -0.00024    0.00212
 16 Pb    0.00011    0.00150   -0.00121
 17 I    -0.00003    0.00607   -0.00469
 18 I    -0.00244    0.00075   -0.00012
 19 I    -0.00003    0.00112   -0.00532
 20 Cs    0.00102   -0.00040   -0.00159
 21 Pb   -0.00011   -0.00208   -0.00116
 22 I     0.00003    0.00226   -0.00032
 23 I    -0.00561   -0.00056   -0.00532
 24 I     0.00003   -0.00077    0.00663
 25 Cs   -0.00017    0.00007    0.00212
 26 Pb   -0.00011   -0.00209   -0.00121
 27 I     0.00003   -0.00256   -0.00026
 28 I     0.00624   -0.00055   -0.00533
 29 I     0.00003   -0.00105   -0.00537
 30 Cs   -0.00049    0.00013   -0.00161
 31 Pb   -0.00011    0.00234   -0.00041
 32 I     0.00003   -0.00245   -0.00061
 33 I    -0.00233    0.00076   -0.00047
 34 I     0.00003    0.00082    0.00068
 35 Cs   -0.00015   -0.00024    0.00212
 36 Pb   -0.00011    0.00235    0.00002
 37 I     0.00003    0.00237    0.00003
 38 I     0.00243    0.00075   -0.00012
 39 I     0.00003    0.00114   -0.00052

System changes: positions 

Initializing position-dependent things.

Density initialized from wave functions
         .-----------------------------.  
        /|                             |  
       / |                             |  
      /  |                             |  
     /   |                             |  
    /    |                             |  
   /   I |     Pb     I       Pb       |  
  /      |                             |  
 *       |   I              I          |  
 |       |     I              I        |  
 | I     | Pb     I       Pb           |  
 |       |                             |  
 |   Cs  I          Cs  I              |  
 |     I | I   Pb     I   I   Pb       |  
 |       |                             |  
 |       .---I--------------I----------.  
 Cs     /       Cs                    /   
 | I   /   Pb  I  I       Pb  I      /    
 |    /                             /     
 |   Cs  I          Cs  I          /      
 |  /                             /       
 | /       I              I      /        
 |/                             /         
 Cs-------------Cs-------------*          

Atomic positions and initial magnetic moments

Positions:
   0 Cs     0.000000    0.000000    0.000000    ( 0.0000,  0.0000,  0.0000)
   1 Pb     3.090000    3.090000    3.090000    ( 0.0000,  0.0000,  0.0000)
   2 I      3.090000    0.000000    3.090000    ( 0.0000,  0.0000,  0.0000)
   3 I      0.000000    3.090000    3.090000    ( 0.0000,  0.0000,  0.0000)
   4 I      3.090000    3.090000    0.050000    ( 0.0000,  0.0000,  0.0000)
   5 Cs     0.000000    0.000000    6.180000    ( 0.0000,  0.0000,  0.0000)
   6 Pb     3.090000    3.090000    9.270000    ( 0.0000,  0.0000,  0.0000)
   7 I      3.090000    0.000000    9.270000    ( 0.0000,  0.0000,  0.0000)
   8 I      0.000000    3.090000    9.270000    ( 0.0000,  0.0000,  0.0000)
   9 I      3.090000    3.090000    6.180000    ( 0.0000,  0.0000,  0.0000)
  10 Cs     0.000000    6.180000    0.000000    ( 0.0000,  0.0000,  0.0000)
  11 Pb     3.090000    9.270000    3.090000    ( 0.0000,  0.0000,  0.0000)
  12 I      3.090000    6.180000    3.090000    ( 0.0000,  0.0000,  0.0000)
  13 I      0.000000    9.270000    3.090000    ( 0.0000,  0.0000,  0.0000)
  14 I      3.090000    9.270000    0.000000    ( 0.0000,  0.0000,  0.0000)
  15 Cs     0.000000    6.180000    6.180000    ( 0.0000,  0.0000,  0.0000)
  16 Pb     3.090000    9.270000    9.270000    ( 0.0000,  0.0000,  0.0000)
  17 I      3.090000    6.180000    9.270000    ( 0.0000,  0.0000,  0.0000)
  18 I      0.000000    9.270000    9.270000    ( 0.0000,  0.0000,  0.0000)
  19 I      3.090000    9.270000    6.180000    ( 0.0000,  0.0000,  0.0000)
  20 Cs     6.180000    0.000000    0.000000    ( 0.0000,  0.0000,  0.0000)
  21 Pb     9.270000    3.090000    3.090000    ( 0.0000,  0.0000,  0.0000)
  22 I      9.270000    0.000000    3.090000    ( 0.0000,  0.0000,  0.0000)
  23 I      6.180000    3.090000    3.090000    ( 0.0000,  0.0000,  0.0000)
  24 I      9.270000    3.090000    0.000000    ( 0.0000,  0.0000,  0.0000)
  25 Cs     6.180000    0.000000    6.180000    ( 0.0000,  0.0000,  0.0000)
  26 Pb     9.270000    3.090000    9.270000    ( 0.0000,  0.0000,  0.0000)
  27 I      9.270000    0.000000    9.270000    ( 0.0000,  0.0000,  0.0000)
  28 I      6.180000    3.090000    9.270000    ( 0.0000,  0.0000,  0.0000)
  29 I      9.270000    3.090000    6.180000    ( 0.0000,  0.0000,  0.0000)
  30 Cs     6.180000    6.180000    0.000000    ( 0.0000,  0.0000,  0.0000)
  31 Pb     9.270000    9.270000    3.090000    ( 0.0000,  0.0000,  0.0000)
  32 I      9.270000    6.180000    3.090000    ( 0.0000,  0.0000,  0.0000)
  33 I      6.180000    9.270000    3.090000    ( 0.0000,  0.0000,  0.0000)
  34 I      9.270000    9.270000    0.000000    ( 0.0000,  0.0000,  0.0000)
  35 Cs     6.180000    6.180000    6.180000    ( 0.0000,  0.0000,  0.0000)
  36 Pb     9.270000    9.270000    9.270000    ( 0.0000,  0.0000,  0.0000)
  37 I      9.270000    6.180000    9.270000    ( 0.0000,  0.0000,  0.0000)
  38 I      6.180000    9.270000    9.270000    ( 0.0000,  0.0000,  0.0000)
  39 I      9.270000    9.270000    6.180000    ( 0.0000,  0.0000,  0.0000)

Unit cell:
           periodic     x           y           z      points  spacing
  1. axis:    yes   12.360000    0.000000    0.000000    63     0.1962
  2. axis:    yes    0.000000   12.360000    0.000000    63     0.1962
  3. axis:    yes    0.000000    0.000000   12.360000    63     0.1962

  Lengths:  12.360000  12.360000  12.360000
  Angles:   90.000000  90.000000  90.000000

Effective grid spacing dv^(1/3) = 0.1962

     iter     time        total  log10-change:
                         energy   eigst   dens
iter:   1 22:10:56  -112.430745   -3.62
iter:   2 22:15:00  -112.429031   -5.05  -3.07
iter:   3 22:19:03  -112.424348   -4.15  -3.12
iter:   4 22:23:06  -112.423584   -5.61  -3.47
iter:   5 22:27:09  -112.423494   -5.65  -3.68
iter:   6 22:31:13  -112.423461   -5.91  -3.79
iter:   7 22:35:15  -112.423410   -6.18  -4.00c
iter:   8 22:39:17  -112.423409   -7.46c -4.25c
iter:   9 22:43:20  -112.423405   -7.32  -4.30c
iter:  10 22:47:23  -112.423403   -7.62c -4.53c
iter:  11 22:51:25  -112.423403c  -8.89c -4.75c

Converged after 11 iterations.

Dipole moment: (-0.000435, -0.000432, -5.458049) |e|*Ang

Energy contributions relative to reference atoms: (reference = -10877575.414791)

Kinetic:       +306.918207
Potential:     -296.314563
External:        +0.000000
XC:            -122.161904
Entropy (-ST):   -0.000003
Local:           -0.865141
SIC:             +0.000000
--------------------------
Free energy:   -112.423405
Extrapolated:  -112.423403

Showing only first 2 kpts
 Kpt  Band  Eigenvalues  Occupancy
  0   174      1.84552    2.00000
  0   175      1.87585    2.00000
  0   176      5.56767    0.00000
  0   177      5.56776    0.00000

  1   174      2.28465    2.00000
  1   175      2.41763    2.00000
  1   176      4.56459    0.00000
  1   177      4.78906    0.00000


Fermi level: 3.71703

Gap: 1.089 eV
Transition (v -> c):
  (s=0, k=13, n=175, [0.00, 0.00, 0.00]) -> (s=0, k=13, n=176, [0.00, 0.00, 0.00])
No difference between direct/indirect transitions

Forces in eV/Ang:
  0 Cs   -0.00006   -0.00004   -0.00020
  1 Pb    0.00018    0.00024    0.07029
  2 I    -0.00000   -0.00862    0.00511
  3 I    -0.00862    0.00001    0.00511
  4 I    -0.00001    0.00003   -0.28795
  5 Cs    0.00001    0.00002   -0.00124
  6 Pb    0.00018    0.00024    0.04342
  7 I     0.00000    0.00802    0.00465
  8 I     0.00802    0.00001    0.00465
  9 I    -0.00000    0.00002    0.11512
 10 Cs   -0.00004    0.00006   -0.00020
 11 Pb    0.00018   -0.00025    0.00322
 12 I    -0.00000    0.00862    0.00511
 13 I    -0.00270   -0.00001    0.00091
 14 I    -0.00000   -0.00003   -0.00850
 15 Cs    0.00003   -0.00002   -0.00124
 16 Pb    0.00018   -0.00025    0.00160
 17 I     0.00000   -0.00802    0.00465
 18 I     0.00280   -0.00001    0.00037
 19 I    -0.00000   -0.00002    0.00557
 20 Cs    0.00006   -0.00005   -0.00020
 21 Pb   -0.00018    0.00020    0.00322
 22 I     0.00000   -0.00270    0.00091
 23 I     0.00862    0.00001    0.00511
 24 I     0.00000    0.00001   -0.00850
 25 Cs   -0.00001    0.00002   -0.00124
 26 Pb   -0.00018    0.00020    0.00160
 27 I     0.00000    0.00280    0.00036
 28 I    -0.00801    0.00001    0.00465
 29 I     0.00000    0.00001    0.00557
 30 Cs    0.00004    0.00006   -0.00020
 31 Pb   -0.00018   -0.00020    0.00154
 32 I     0.00000    0.00269    0.00091
 33 I     0.00270   -0.00001    0.00091
 34 I     0.00000   -0.00000   -0.00116
 35 Cs   -0.00003   -0.00002   -0.00124
 36 Pb   -0.00018   -0.00019   -0.00059
 37 I     0.00000   -0.00280    0.00037
 38 I    -0.00280   -0.00001    0.00037
 39 I     0.00000    0.00000    0.00062

Timing:                                      incl.     excl.
-------------------------------------------------------------------
Density initialized from wave functions:   181.833   181.832   0.7% |
 Symmetrize density:                         0.002     0.002   0.0% |
Forces:                                    601.819   601.819   2.2% ||
Hamiltonian:                                30.837     0.161   0.0% |
 Atomic:                                     5.312     2.414   0.0% |
  XC Correction:                             2.898     2.898   0.0% |
 Calculate atomic Hamiltonians:             16.054    16.054   0.1% |
 Communicate:                                0.003     0.003   0.0% |
 Initialize Hamiltonian:                     0.000     0.000   0.0% |
 Poisson:                                    0.199     0.199   0.0% |
 XC 3D grid:                                 9.107     9.107   0.0% |
LCAO initialization:                       221.490     0.210   0.0% |
 LCAO eigensolver:                           1.251     0.001   0.0% |
  Calculate projections:                     0.078     0.078   0.0% |
  DenseAtomicCorrection:                     0.150     0.150   0.0% |
  Distribute overlap matrix:                 0.001     0.001   0.0% |
  Orbital Layouts:                           0.129     0.129   0.0% |
  Potential matrix:                          0.753     0.753   0.0% |
  Sum over cells:                            0.139     0.139   0.0% |
 LCAO to grid:                             218.872   218.872   0.8% |
 Set positions (LCAO WFS):                   1.156     0.374   0.0% |
  Basic WFS set positions:                   0.001     0.001   0.0% |
  Basis functions set positions:             0.000     0.000   0.0% |
  P tci:                                     0.545     0.545   0.0% |
  ST tci:                                    0.194     0.194   0.0% |
  mktci:                                     0.042     0.042   0.0% |
PWDescriptor:                                0.077     0.077   0.0% |
Redistribute:                                0.075     0.075   0.0% |
SCF-cycle:                               26544.794  6157.349  22.2% |--------|
 Davidson:                               18705.915  4572.156  16.5% |------|
  Apply H:                                1624.830  1606.741   5.8% |-|
   HMM T:                                   18.089    18.089   0.1% |
  Subspace diag:                          3347.179     0.071   0.0% |
   calc_h_matrix:                         2456.156   819.302   3.0% ||
    Apply H:                              1636.854  1618.484   5.8% |-|
     HMM T:                                 18.369    18.369   0.1% |
   diagonalize:                              7.657     7.657   0.0% |
   rotate_psi:                             883.296   883.296   3.2% ||
  calc. matrices:                         7253.721  4070.738  14.7% |-----|
   Apply H:                               3182.983  3147.565  11.4% |----|
    HMM T:                                  35.418    35.418   0.1% |
  diagonalize:                             147.297   147.297   0.5% |
  rotate_psi:                             1760.732  1760.732   6.4% |--|
 Density:                                 1211.314     0.003   0.0% |
  Atomic density matrices:                   2.008     2.008   0.0% |
  Mix:                                     165.278   165.278   0.6% |
  Multipole moments:                         0.098     0.098   0.0% |
  Pseudo density:                         1043.927  1043.922   3.8% |-|
   Symmetrize density:                       0.006     0.006   0.0% |
 Hamiltonian:                              269.775     1.373   0.0% |
  Atomic:                                   36.267    10.752   0.0% |
   XC Correction:                           25.515    25.515   0.1% |
  Calculate atomic Hamiltonians:           147.986   147.986   0.5% |
  Communicate:                               0.013     0.013   0.0% |
  Poisson:                                   1.398     1.398   0.0% |
  XC 3D grid:                               82.738    82.738   0.3% |
 Orthonormalize:                           200.441     0.017   0.0% |
  calc_s_matrix:                            42.192    42.192   0.2% |
  inverse-cholesky:                          0.174     0.174   0.0% |
  projections:                             112.641   112.641   0.4% |
  rotate_psi_s:                             45.417    45.417   0.2% |
Set symmetry:                                0.000     0.000   0.0% |
Other:                                     113.934   113.934   0.4% |
-------------------------------------------------------------------
Total:                                             27694.859 100.0%

Memory usage: 1.94 GiB
Date: Fri Apr 24 22:52:23 2026
