phonopy:
  version: "3.5.1"
  frequency_unit_conversion_factor: 15.633302
  symmetry_tolerance: 1.00000e-05

physical_unit:
  atomic_mass: "AMU"
  length: "angstrom"

space_group:
  type: "Pm-3m"
  number: 221
  Hall_symbol: "-P 4 2 3"

supercell_matrix:
- [   2,   0,   0 ]
- [   0,   2,   0 ]
- [   0,   0,   2 ]

primitive_cell:
  lattice:
  - [     6.180000000000000,     0.000000000000000,     0.000000000000000 ] # a
  - [     0.000000000000000,     6.180000000000000,     0.000000000000000 ] # b
  - [     0.000000000000000,     0.000000000000000,     6.180000000000000 ] # c
  points:
  - symbol: Cs # 1
    coordinates: [  0.000000000000000,  0.000000000000000,  0.000000000000000 ]
    mass: 132.905452
  - symbol: Pb # 2
    coordinates: [  0.500000000000000,  0.500000000000000,  0.500000000000000 ]
    mass: 207.200000
  - symbol: I # 3
    coordinates: [  0.500000000000000,  0.000000000000000,  0.500000000000000 ]
    mass: 126.904470
  - symbol: I # 4
    coordinates: [  0.000000000000000,  0.500000000000000,  0.500000000000000 ]
    mass: 126.904470
  - symbol: I # 5
    coordinates: [  0.500000000000000,  0.500000000000000,  0.000000000000000 ]
    mass: 126.904470
  reciprocal_lattice: # without 2pi
  - [     0.161812297734628,     0.000000000000000,     0.000000000000000 ] # a*
  - [     0.000000000000000,     0.161812297734628,     0.000000000000000 ] # b*
  - [     0.000000000000000,     0.000000000000000,     0.161812297734628 ] # c*

unit_cell:
  lattice:
  - [     6.180000000000000,     0.000000000000000,     0.000000000000000 ] # a
  - [     0.000000000000000,     6.180000000000000,     0.000000000000000 ] # b
  - [     0.000000000000000,     0.000000000000000,     6.180000000000000 ] # c
  points:
  - symbol: Cs # 1
    coordinates: [  0.000000000000000,  0.000000000000000,  0.000000000000000 ]
    mass: 132.905452
    reduced_to: 1
  - symbol: Pb # 2
    coordinates: [  0.500000000000000,  0.500000000000000,  0.500000000000000 ]
    mass: 207.200000
    reduced_to: 2
  - symbol: I # 3
    coordinates: [  0.500000000000000,  0.000000000000000,  0.500000000000000 ]
    mass: 126.904470
    reduced_to: 3
  - symbol: I # 4
    coordinates: [  0.000000000000000,  0.500000000000000,  0.500000000000000 ]
    mass: 126.904470
    reduced_to: 4
  - symbol: I # 5
    coordinates: [  0.500000000000000,  0.500000000000000,  0.000000000000000 ]
    mass: 126.904470
    reduced_to: 5

supercell:
  lattice:
  - [    12.359999999999999,     0.000000000000000,     0.000000000000000 ] # a
  - [     0.000000000000000,    12.359999999999999,     0.000000000000000 ] # b
  - [     0.000000000000000,     0.000000000000000,    12.359999999999999 ] # c
  points:
  - symbol: Cs # 1
    coordinates: [  0.000000000000000,  0.000000000000000,  0.000000000000000 ]
    mass: 132.905452
    reduced_to: 1
  - symbol: Cs # 2
    coordinates: [  0.500000000000000,  0.000000000000000,  0.000000000000000 ]
    mass: 132.905452
    reduced_to: 1
  - symbol: Cs # 3
    coordinates: [  0.000000000000000,  0.500000000000000,  0.000000000000000 ]
    mass: 132.905452
    reduced_to: 1
  - symbol: Cs # 4
    coordinates: [  0.500000000000000,  0.500000000000000,  0.000000000000000 ]
    mass: 132.905452
    reduced_to: 1
  - symbol: Cs # 5
    coordinates: [  0.000000000000000,  0.000000000000000,  0.500000000000000 ]
    mass: 132.905452
    reduced_to: 1
  - symbol: Cs # 6
    coordinates: [  0.500000000000000,  0.000000000000000,  0.500000000000000 ]
    mass: 132.905452
    reduced_to: 1
  - symbol: Cs # 7
    coordinates: [  0.000000000000000,  0.500000000000000,  0.500000000000000 ]
    mass: 132.905452
    reduced_to: 1
  - symbol: Cs # 8
    coordinates: [  0.500000000000000,  0.500000000000000,  0.500000000000000 ]
    mass: 132.905452
    reduced_to: 1
  - symbol: Pb # 9
    coordinates: [  0.250000000000000,  0.250000000000000,  0.250000000000000 ]
    mass: 207.200000
    reduced_to: 9
  - symbol: Pb # 10
    coordinates: [  0.750000000000000,  0.250000000000000,  0.250000000000000 ]
    mass: 207.200000
    reduced_to: 9
  - symbol: Pb # 11
    coordinates: [  0.250000000000000,  0.750000000000000,  0.250000000000000 ]
    mass: 207.200000
    reduced_to: 9
  - symbol: Pb # 12
    coordinates: [  0.750000000000000,  0.750000000000000,  0.250000000000000 ]
    mass: 207.200000
    reduced_to: 9
  - symbol: Pb # 13
    coordinates: [  0.250000000000000,  0.250000000000000,  0.750000000000000 ]
    mass: 207.200000
    reduced_to: 9
  - symbol: Pb # 14
    coordinates: [  0.750000000000000,  0.250000000000000,  0.750000000000000 ]
    mass: 207.200000
    reduced_to: 9
  - symbol: Pb # 15
    coordinates: [  0.250000000000000,  0.750000000000000,  0.750000000000000 ]
    mass: 207.200000
    reduced_to: 9
  - symbol: Pb # 16
    coordinates: [  0.750000000000000,  0.750000000000000,  0.750000000000000 ]
    mass: 207.200000
    reduced_to: 9
  - symbol: I # 17
    coordinates: [  0.250000000000000,  0.000000000000000,  0.250000000000000 ]
    mass: 126.904470
    reduced_to: 17
  - symbol: I # 18
    coordinates: [  0.750000000000000,  0.000000000000000,  0.250000000000000 ]
    mass: 126.904470
    reduced_to: 17
  - symbol: I # 19
    coordinates: [  0.250000000000000,  0.500000000000000,  0.250000000000000 ]
    mass: 126.904470
    reduced_to: 17
  - symbol: I # 20
    coordinates: [  0.750000000000000,  0.500000000000000,  0.250000000000000 ]
    mass: 126.904470
    reduced_to: 17
  - symbol: I # 21
    coordinates: [  0.250000000000000,  0.000000000000000,  0.750000000000000 ]
    mass: 126.904470
    reduced_to: 17
  - symbol: I # 22
    coordinates: [  0.750000000000000,  0.000000000000000,  0.750000000000000 ]
    mass: 126.904470
    reduced_to: 17
  - symbol: I # 23
    coordinates: [  0.250000000000000,  0.500000000000000,  0.750000000000000 ]
    mass: 126.904470
    reduced_to: 17
  - symbol: I # 24
    coordinates: [  0.750000000000000,  0.500000000000000,  0.750000000000000 ]
    mass: 126.904470
    reduced_to: 17
  - symbol: I # 25
    coordinates: [  0.000000000000000,  0.250000000000000,  0.250000000000000 ]
    mass: 126.904470
    reduced_to: 25
  - symbol: I # 26
    coordinates: [  0.500000000000000,  0.250000000000000,  0.250000000000000 ]
    mass: 126.904470
    reduced_to: 25
  - symbol: I # 27
    coordinates: [  0.000000000000000,  0.750000000000000,  0.250000000000000 ]
    mass: 126.904470
    reduced_to: 25
  - symbol: I # 28
    coordinates: [  0.500000000000000,  0.750000000000000,  0.250000000000000 ]
    mass: 126.904470
    reduced_to: 25
  - symbol: I # 29
    coordinates: [  0.000000000000000,  0.250000000000000,  0.750000000000000 ]
    mass: 126.904470
    reduced_to: 25
  - symbol: I # 30
    coordinates: [  0.500000000000000,  0.250000000000000,  0.750000000000000 ]
    mass: 126.904470
    reduced_to: 25
  - symbol: I # 31
    coordinates: [  0.000000000000000,  0.750000000000000,  0.750000000000000 ]
    mass: 126.904470
    reduced_to: 25
  - symbol: I # 32
    coordinates: [  0.500000000000000,  0.750000000000000,  0.750000000000000 ]
    mass: 126.904470
    reduced_to: 25
  - symbol: I # 33
    coordinates: [  0.250000000000000,  0.250000000000000,  0.000000000000000 ]
    mass: 126.904470
    reduced_to: 33
  - symbol: I # 34
    coordinates: [  0.750000000000000,  0.250000000000000,  0.000000000000000 ]
    mass: 126.904470
    reduced_to: 33
  - symbol: I # 35
    coordinates: [  0.250000000000000,  0.750000000000000,  0.000000000000000 ]
    mass: 126.904470
    reduced_to: 33
  - symbol: I # 36
    coordinates: [  0.750000000000000,  0.750000000000000,  0.000000000000000 ]
    mass: 126.904470
    reduced_to: 33
  - symbol: I # 37
    coordinates: [  0.250000000000000,  0.250000000000000,  0.500000000000000 ]
    mass: 126.904470
    reduced_to: 33
  - symbol: I # 38
    coordinates: [  0.750000000000000,  0.250000000000000,  0.500000000000000 ]
    mass: 126.904470
    reduced_to: 33
  - symbol: I # 39
    coordinates: [  0.250000000000000,  0.750000000000000,  0.500000000000000 ]
    mass: 126.904470
    reduced_to: 33
  - symbol: I # 40
    coordinates: [  0.750000000000000,  0.750000000000000,  0.500000000000000 ]
    mass: 126.904470
    reduced_to: 33

displacements:
- atom:    1
  displacement:
    [   0.0200000000000000,  0.0000000000000000,  0.0000000000000000 ]
- atom:    9
  displacement:
    [   0.0200000000000000,  0.0000000000000000,  0.0000000000000000 ]
- atom:   17
  displacement:
    [   0.0141421356237310,  0.0141421356237310,  0.0000000000000000 ]
