
  ___ ___ ___ _ _ _  
 |   |   |_  | | | | 
 | | | | | . | | | | 
 |__ |  _|___|_____|  25.7.0
 |___|_|             

User:   luis-ochoa@luis-ochoa-To-be-filled-by-O-E
Date:   Sat Apr 25 16:03:34 2026
Arch:   x86_64
Pid:    62268
CWD:    /home/luis-ochoa/Documents/Vscode/py/dft-cspbi3-gpaw-main
Python: 3.12.3
gpaw:   /home/luis-ochoa/Documents/Vscode/py/dft-cspbi3-gpaw-main/.venv/lib/python3.12/site-packages/gpaw
_gpaw:  /home/luis-ochoa/Documents/Vscode/py/dft-cspbi3-gpaw-main/.venv/lib/python3.12/site-packages/
        _gpaw.cpython-312-x86_64-linux-gnu.so
ase:    /home/luis-ochoa/Documents/Vscode/py/dft-cspbi3-gpaw-main/.venv/lib/python3.12/site-packages/ase (version 3.28.0)
numpy:  /home/luis-ochoa/Documents/Vscode/py/dft-cspbi3-gpaw-main/.venv/lib/python3.12/site-packages/numpy (version 2.4.4)
scipy:  /home/luis-ochoa/Documents/Vscode/py/dft-cspbi3-gpaw-main/.venv/lib/python3.12/site-packages/scipy (version 1.17.1)
libxc:  5.2.3
units:  Angstrom and eV
cores: 7
OpenMP: False
OMP_NUM_THREADS: 1

Input parameters:
  convergence: {density: 1e-05,
                eigenstates: 1e-10,
                energy: 1e-08}
  kpts: {gamma: True,
         size: [3, 3, 3]}
  mode: {ecut: 450.00000000000006,
         name: pw}
  occupations: {name: fermi-dirac,
                width: 0.05}
  symmetry: off
  xc: PBE

System changes: positions, numbers, cell, pbc, initial_charges, initial_magmoms 

Initialize ...

species:
  Cs:
    name: Caesium
    id: fa822afd343f47335d508b9ee4f394c3
    Z: 55.0
    valence: 9
    core: 46
    charge: 0.0
    file: /home/luis-ochoa/.gpaw/gpaw-setups-24.11.0/Cs.PBE.gz
    compensation charges: {type: gauss,
                           rc: 0.33,
                           lmax: 2}
    cutoffs: {filter: 2.06,
              core: 2.51}
    projectors:
      #              energy  rcut
      - 5s(2.00)   -26.706   1.164
      - 6s(1.00)    -2.085   1.164
      - 5p(6.00)   -13.523   1.058
      -  p          13.688   1.058
      -  d           0.000   1.058
  
    # Using partial waves for Cs as LCAO basis

  Pb:
    name: Lead
    id: 66e73b13d76dc837202bcdb13fee58e6
    Z: 82.0
    valence: 14
    core: 68
    charge: 0.0
    file: /home/luis-ochoa/.gpaw/gpaw-setups-24.11.0/Pb.PBE.gz
    compensation charges: {type: gauss,
                           rc: 0.38,
                           lmax: 2}
    cutoffs: {filter: 2.36,
              core: 2.43}
    projectors:
      #              energy  rcut
      - 6s(2.00)   -11.969   1.259
      - 6p(2.00)    -3.506   1.275
      - 5d(10.00)   -21.211   1.217
      -  s          15.243   1.259
      -  p          23.705   1.275
      -  d           6.001   1.217
  
    # Using partial waves for Pb as LCAO basis

  I:
    name: Iodine
    id: 91405a398e4dfe788ff04f57531604ec
    Z: 53.0
    valence: 7
    core: 46
    charge: 0.0
    file: /home/luis-ochoa/.gpaw/gpaw-setups-24.11.0/I.PBE.gz
    compensation charges: {type: gauss,
                           rc: 0.37,
                           lmax: 2}
    cutoffs: {filter: 2.06,
              core: 2.90}
    projectors:
      #              energy  rcut
      - 5s(2.00)   -17.382   1.164
      - 5p(5.00)    -7.088   1.164
      -  s           9.829   1.164
      -  p          20.123   1.164
      -  d           0.000   1.164
  
    # Using partial waves for I as LCAO basis

Reference energy: -10877575.414791  # eV

Spin-paired calculation

Convergence criteria:
 Maximum [total energy] change in last 3 cyles: 1e-08 eV / valence electron
 Maximum integral of absolute [dens]ity change: 1e-05 electrons / valence electron
 Maximum integral of absolute [eigenst]ate change: 1e-10 eV^2 / valence electron
 Maximum number of scf [iter]ations: 333
 (Square brackets indicate name in SCF output, whereas a 'c' in
 the SCF output indicates the quantity has converged.)

Symmetries present (total): 1

  ( 1  0  0)
  ( 0  1  0)
  ( 0  0  1)

27 k-points: 3 x 3 x 3 Monkhorst-Pack grid
27 k-points in the irreducible part of the Brillouin zone
       k-points in crystal coordinates                weights
   0:    -0.33333333   -0.33333333   -0.33333333          1/27
   1:    -0.33333333   -0.33333333    0.00000000          1/27
   2:    -0.33333333   -0.33333333    0.33333333          1/27
   3:    -0.33333333    0.00000000   -0.33333333          1/27
   4:    -0.33333333    0.00000000    0.00000000          1/27
   5:    -0.33333333    0.00000000    0.33333333          1/27
   6:    -0.33333333    0.33333333   -0.33333333          1/27
   7:    -0.33333333    0.33333333    0.00000000          1/27
   8:    -0.33333333    0.33333333    0.33333333          1/27
   9:     0.00000000   -0.33333333   -0.33333333          1/27
          ...
  26:     0.33333333    0.33333333    0.33333333          1/27

Wave functions: Plane wave expansion
  Cutoff energy: 450.000 eV
  Number of coefficients (min, max): 40843, 40934
  Pulay-stress correction: 0.000000 eV/Ang^3 (de/decut=0.000000)
  Using Numpy's FFT
  ScaLapack parameters: grid=1x1, blocksize=None
  Wavefunction extrapolation:
    Improved wavefunction reuse through dual PAW basis 

Occupation numbers: Fermi-Dirac:
  width: 0.0500  # eV
 

Eigensolver
   Davidson(niter=2) 

Densities:
  Coarse grid: 63*63*63 grid
  Fine grid: 126*126*126 grid
  Total Charge: 0.000000 

Density mixing:
  Method: separate
  Backend: pulay
  Linear mixing parameter: 0.05
  old densities: 5
  Damping of long wavelength oscillations: 50 

Hamiltonian:
  XC and Coulomb potentials evaluated on a 126*126*126 grid
  Using the PBE Exchange-Correlation functional
  External potential:
    NoExternalPotential
 

XC parameters: PBE with 2 nearest neighbor stencil

Memory estimate:
  Process memory now: 259.07 MiB
  Calculator: 737.83 MiB
    Density: 134.06 MiB
      Arrays: 49.60 MiB
      Localized functions: 65.39 MiB
      Mixer: 19.08 MiB
    Hamiltonian: 34.20 MiB
      Arrays: 32.43 MiB
      XC: 0.00 MiB
      Poisson: 0.00 MiB
      vbar: 1.77 MiB
    Wavefunctions: 569.57 MiB
      Arrays psit_nG: 389.75 MiB
      Eigensolver: 139.65 MiB
      Projections: 5.33 MiB
      Projectors: 23.42 MiB
      PW-descriptor: 11.41 MiB

Total number of cores used: 7
Parallelization over k-points: 7

Number of atoms: 40
Number of atomic orbitals: 208
Number of bands in calculation: 208
Number of valence electrons: 352
Bands to converge: occupied

... initialized

Initializing position-dependent things.

Density initialized from atomic densities
Creating initial wave functions:
  208 bands from LCAO basis set

         .-----------------------------.  
        /|                             |  
       / |                             |  
      /  |                             |  
     /   |                             |  
    /    |                             |  
   /   I |     Pb     I       Pb       |  
  /      |                             |  
 *       |   I              I          |  
 |       |     I              I        |  
 | I     | Pb     I       Pb           |  
 |       |                             |  
 |   Cs  I          Cs  I              |  
 |     I | I   Pb     I   I   Pb       |  
 |       |                             |  
 |       .---I--------------I----------.  
 Cs     /       Cs                    /   
 | I   /   Pb  I  I       Pb  I      /    
 |    /                             /     
 |   Cs  I          Cs  I          /      
 |  /                             /       
 | /       I              I      /        
 |/                             /         
 Cs-------------Cs-------------*          

Atomic positions and initial magnetic moments

Positions:
   0 Cs     0.020000    0.000000    0.000000    ( 0.0000,  0.0000,  0.0000)
   1 Cs     6.180000    0.000000    0.000000    ( 0.0000,  0.0000,  0.0000)
   2 Cs     0.000000    6.180000    0.000000    ( 0.0000,  0.0000,  0.0000)
   3 Cs     6.180000    6.180000    0.000000    ( 0.0000,  0.0000,  0.0000)
   4 Cs     0.000000    0.000000    6.180000    ( 0.0000,  0.0000,  0.0000)
   5 Cs     6.180000    0.000000    6.180000    ( 0.0000,  0.0000,  0.0000)
   6 Cs     0.000000    6.180000    6.180000    ( 0.0000,  0.0000,  0.0000)
   7 Cs     6.180000    6.180000    6.180000    ( 0.0000,  0.0000,  0.0000)
   8 Pb     3.090000    3.090000    3.090000    ( 0.0000,  0.0000,  0.0000)
   9 Pb     9.270000    3.090000    3.090000    ( 0.0000,  0.0000,  0.0000)
  10 Pb     3.090000    9.270000    3.090000    ( 0.0000,  0.0000,  0.0000)
  11 Pb     9.270000    9.270000    3.090000    ( 0.0000,  0.0000,  0.0000)
  12 Pb     3.090000    3.090000    9.270000    ( 0.0000,  0.0000,  0.0000)
  13 Pb     9.270000    3.090000    9.270000    ( 0.0000,  0.0000,  0.0000)
  14 Pb     3.090000    9.270000    9.270000    ( 0.0000,  0.0000,  0.0000)
  15 Pb     9.270000    9.270000    9.270000    ( 0.0000,  0.0000,  0.0000)
  16 I      3.090000    0.000000    3.090000    ( 0.0000,  0.0000,  0.0000)
  17 I      9.270000    0.000000    3.090000    ( 0.0000,  0.0000,  0.0000)
  18 I      3.090000    6.180000    3.090000    ( 0.0000,  0.0000,  0.0000)
  19 I      9.270000    6.180000    3.090000    ( 0.0000,  0.0000,  0.0000)
  20 I      3.090000    0.000000    9.270000    ( 0.0000,  0.0000,  0.0000)
  21 I      9.270000    0.000000    9.270000    ( 0.0000,  0.0000,  0.0000)
  22 I      3.090000    6.180000    9.270000    ( 0.0000,  0.0000,  0.0000)
  23 I      9.270000    6.180000    9.270000    ( 0.0000,  0.0000,  0.0000)
  24 I      0.000000    3.090000    3.090000    ( 0.0000,  0.0000,  0.0000)
  25 I      6.180000    3.090000    3.090000    ( 0.0000,  0.0000,  0.0000)
  26 I      0.000000    9.270000    3.090000    ( 0.0000,  0.0000,  0.0000)
  27 I      6.180000    9.270000    3.090000    ( 0.0000,  0.0000,  0.0000)
  28 I      0.000000    3.090000    9.270000    ( 0.0000,  0.0000,  0.0000)
  29 I      6.180000    3.090000    9.270000    ( 0.0000,  0.0000,  0.0000)
  30 I      0.000000    9.270000    9.270000    ( 0.0000,  0.0000,  0.0000)
  31 I      6.180000    9.270000    9.270000    ( 0.0000,  0.0000,  0.0000)
  32 I      3.090000    3.090000    0.000000    ( 0.0000,  0.0000,  0.0000)
  33 I      9.270000    3.090000    0.000000    ( 0.0000,  0.0000,  0.0000)
  34 I      3.090000    9.270000    0.000000    ( 0.0000,  0.0000,  0.0000)
  35 I      9.270000    9.270000    0.000000    ( 0.0000,  0.0000,  0.0000)
  36 I      3.090000    3.090000    6.180000    ( 0.0000,  0.0000,  0.0000)
  37 I      9.270000    3.090000    6.180000    ( 0.0000,  0.0000,  0.0000)
  38 I      3.090000    9.270000    6.180000    ( 0.0000,  0.0000,  0.0000)
  39 I      9.270000    9.270000    6.180000    ( 0.0000,  0.0000,  0.0000)

Unit cell:
           periodic     x           y           z      points  spacing
  1. axis:    yes   12.360000    0.000000    0.000000    63     0.1962
  2. axis:    yes    0.000000   12.360000    0.000000    63     0.1962
  3. axis:    yes    0.000000    0.000000   12.360000    63     0.1962

  Lengths:  12.360000  12.360000  12.360000
  Angles:   90.000000  90.000000  90.000000

Effective grid spacing dv^(1/3) = 0.1962

     iter     time        total  log10-change:
                         energy   eigst   dens
iter:   1 16:12:35  -114.929290
iter:   2 16:16:43  -114.587041   -1.36  -1.34
iter:   3 16:20:50  -112.916477   -2.11  -1.39
iter:   4 16:24:57  -112.583819   -1.96  -1.56
iter:   5 16:29:04  -112.433816   -3.02  -1.79
iter:   6 16:33:09  -112.445308   -4.15  -2.28
iter:   7 16:37:16  -112.429488   -3.88  -2.43
iter:   8 16:41:24  -112.430660   -4.40  -2.59
iter:   9 16:45:32  -112.430407   -5.60  -3.17
iter:  10 16:49:39  -112.430342   -5.82  -3.26
iter:  11 16:53:46  -112.430375   -6.64  -3.23
iter:  12 16:57:53  -112.430613   -5.18  -3.23
iter:  13 17:01:59  -112.430467   -6.43  -3.64
iter:  14 17:06:06  -112.430466   -7.73  -4.11
iter:  15 17:10:13  -112.430461   -8.16  -4.17
iter:  16 17:14:20  -112.430447   -6.61  -4.21
iter:  17 17:18:26  -112.430447   -7.93  -4.38
iter:  18 17:22:35  -112.430446c  -8.83  -4.48
iter:  19 17:26:42  -112.430446c  -9.17  -4.49
iter:  20 17:30:50  -112.430445c  -8.93  -4.53
iter:  21 17:34:57  -112.430444c  -8.54  -4.56
iter:  22 17:39:05  -112.430444c  -8.67  -4.63
iter:  23 17:43:12  -112.430444c  -9.74  -4.77
iter:  24 17:47:19  -112.430444c  -9.33  -4.81
iter:  25 17:51:26  -112.430444c  -8.98  -4.98
iter:  26 17:55:34  -112.430445c  -9.34  -5.09c
iter:  27 17:59:42  -112.430444c  -9.03  -5.06c
iter:  28 18:03:48  -112.430444c  -9.92  -5.17c
iter:  29 18:07:56  -112.430444c  -9.83  -5.26c
iter:  30 18:12:03  -112.430444c  -8.97  -5.29c
iter:  31 18:16:09  -112.430444c -10.00  -5.39c
iter:  32 18:20:18  -112.430444c -11.00c -5.81c

Converged after 32 iterations.

Dipole moment: (-2.986275, -0.000000, 0.000000) |e|*Ang

Energy contributions relative to reference atoms: (reference = -10877575.414791)

Kinetic:       +306.841197
Potential:     -296.255588
External:        +0.000000
XC:            -122.149327
Entropy (-ST):   -0.000003
Local:           -0.866724
SIC:             +0.000000
--------------------------
Free energy:   -112.430446
Extrapolated:  -112.430444

Showing only first 2 kpts
 Kpt  Band  Eigenvalues  Occupancy
  0   174      1.84048    2.00000
  0   175      1.87249    2.00000
  0   176      5.56778    0.00000
  0   177      5.56779    0.00000

  1   174      2.28361    2.00000
  1   175      2.41700    2.00000
  1   176      4.56414    0.00000
  1   177      4.78895    0.00000


Fermi level: 3.71669

Gap: 1.089 eV
Transition (v -> c):
  (s=0, k=13, n=175, [0.00, 0.00, 0.00]) -> (s=0, k=13, n=176, [0.00, 0.00, 0.00])
No difference between direct/indirect transitions

Forces in eV/Ang:
  0 Cs   -0.00539   -0.00000    0.00000
  1 Cs    0.00235   -0.00000   -0.00000
  2 Cs   -0.00114   -0.00000   -0.00000
  3 Cs    0.00130    0.00000   -0.00000
  4 Cs   -0.00114   -0.00000   -0.00000
  5 Cs    0.00130   -0.00000    0.00000
  6 Cs   -0.00053    0.00000    0.00000
  7 Cs    0.00055    0.00000    0.00000
  8 Pb    0.00029    0.00172    0.00172
  9 Pb    0.00005   -0.00145   -0.00145
 10 Pb    0.00029   -0.00172    0.00172
 11 Pb    0.00005    0.00145   -0.00145
 12 Pb    0.00029    0.00172   -0.00172
 13 Pb    0.00005   -0.00145    0.00145
 14 Pb    0.00029   -0.00172   -0.00172
 15 Pb    0.00005    0.00145    0.00145
 16 I     0.00003   -0.00000   -0.00039
 17 I     0.00002    0.00000    0.00039
 18 I     0.00001   -0.00000   -0.00023
 19 I     0.00005    0.00000    0.00018
 20 I     0.00003    0.00000    0.00039
 21 I     0.00002    0.00000   -0.00039
 22 I     0.00001   -0.00000    0.00023
 23 I     0.00005    0.00000   -0.00018
 24 I     0.00105   -0.00002   -0.00002
 25 I    -0.00082   -0.00002   -0.00002
 26 I     0.00105    0.00002   -0.00002
 27 I    -0.00082    0.00002   -0.00002
 28 I     0.00105   -0.00002    0.00002
 29 I    -0.00082   -0.00002    0.00002
 30 I     0.00105    0.00002    0.00002
 31 I    -0.00082    0.00002    0.00002
 32 I     0.00003   -0.00039   -0.00000
 33 I     0.00002    0.00039    0.00000
 34 I     0.00003    0.00039    0.00000
 35 I     0.00002   -0.00039    0.00000
 36 I     0.00001   -0.00023    0.00000
 37 I     0.00005    0.00018    0.00000
 38 I     0.00001    0.00023    0.00000
 39 I     0.00005   -0.00018    0.00000

Timing:                              incl.     excl.
-----------------------------------------------------------
Forces:                             56.563    56.563   0.7% |
Hamiltonian:                         2.738     0.013   0.0% |
 Atomic:                             0.345     0.069   0.0% |
  XC Correction:                     0.276     0.276   0.0% |
 Calculate atomic Hamiltonians:      1.500     1.500   0.0% |
 Communicate:                        0.000     0.000   0.0% |
 Initialize Hamiltonian:             0.000     0.000   0.0% |
 Poisson:                            0.014     0.014   0.0% |
 XC 3D grid:                         0.866     0.866   0.0% |
LCAO initialization:               212.616     0.205   0.0% |
 LCAO eigensolver:                   1.114     0.001   0.0% |
  Calculate projections:             0.062     0.062   0.0% |
  DenseAtomicCorrection:             0.110     0.110   0.0% |
  Distribute overlap matrix:         0.001     0.001   0.0% |
  Orbital Layouts:                   0.108     0.108   0.0% |
  Potential matrix:                  0.740     0.740   0.0% |
  Sum over cells:                    0.094     0.094   0.0% |
 LCAO to grid:                     210.276   210.276   2.5% ||
 Set positions (LCAO WFS):           1.021     0.272   0.0% |
  Basic WFS set positions:           0.001     0.001   0.0% |
  Basis functions set positions:     0.000     0.000   0.0% |
  P tci:                             0.539     0.539   0.0% |
  ST tci:                            0.187     0.187   0.0% |
  mktci:                             0.021     0.021   0.0% |
PWDescriptor:                        0.077     0.077   0.0% |
SCF-cycle:                        7983.144  1864.768  22.6% |--------|
 Davidson:                        5620.602  1371.246  16.6% |------|
  Apply H:                         493.365   487.948   5.9% |-|
   HMM T:                            5.417     5.417   0.1% |
  Subspace diag:                  1001.786     0.018   0.0% |
   calc_h_matrix:                  736.947   242.883   2.9% ||
    Apply H:                       494.064   488.602   5.9% |-|
     HMM T:                          5.462     5.462   0.1% |
   diagonalize:                      2.462     2.462   0.0% |
   rotate_psi:                     262.359   262.359   3.2% ||
  calc. matrices:                 2183.865  1205.198  14.6% |-----|
   Apply H:                        978.667   967.916  11.7% |----|
    HMM T:                          10.751    10.751   0.1% |
  diagonalize:                      43.594    43.594   0.5% |
  rotate_psi:                      526.747   526.747   6.4% |--|
 Density:                          390.342     0.001   0.0% |
  Atomic density matrices:           0.704     0.704   0.0% |
  Mix:                              53.532    53.532   0.6% |
  Multipole moments:                 0.042     0.042   0.0% |
  Pseudo density:                  336.062   336.056   4.1% |-|
   Symmetrize density:               0.007     0.007   0.0% |
 Hamiltonian:                       88.474     0.397   0.0% |
  Atomic:                           12.967     4.394   0.1% |
   XC Correction:                    8.573     8.573   0.1% |
  Calculate atomic Hamiltonians:    47.312    47.312   0.6% |
  Communicate:                       0.009     0.009   0.0% |
  Poisson:                           0.633     0.633   0.0% |
  XC 3D grid:                       27.155    27.155   0.3% |
 Orthonormalize:                    18.958     0.002   0.0% |
  calc_s_matrix:                     3.897     3.897   0.0% |
  inverse-cholesky:                  0.035     0.035   0.0% |
  projections:                      10.865    10.865   0.1% |
  rotate_psi_s:                      4.159     4.159   0.1% |
Set symmetry:                        0.000     0.000   0.0% |
Other:                               5.482     5.482   0.1% |
-----------------------------------------------------------
Total:                                      8260.620 100.0%

Memory usage: 1.67 GiB
Date: Sat Apr 25 18:21:15 2026
