
  ___ ___ ___ _ _ _  
 |   |   |_  | | | | 
 | | | | | . | | | | 
 |__ |  _|___|_____|  25.7.0
 |___|_|             

User:   luis-ochoa@luis-pc
Date:   Tue May  5 13:06:00 2026
Arch:   x86_64
Pid:    11041
CWD:    /home/luis-ochoa/Documents/Vscode/py/dft
Python: 3.12.3
gpaw:   /home/luis-ochoa/Documents/Vscode/py/dft/.venv/lib/python3.12/site-packages/gpaw
_gpaw:  /home/luis-ochoa/Documents/Vscode/py/dft/.venv/lib/python3.12/site-packages/
        _gpaw.cpython-312-x86_64-linux-gnu.so
ase:    /home/luis-ochoa/Documents/Vscode/py/dft/.venv/lib/python3.12/site-packages/ase (version 3.28.0)
numpy:  /home/luis-ochoa/Documents/Vscode/py/dft/.venv/lib/python3.12/site-packages/numpy (version 2.4.4)
scipy:  /home/luis-ochoa/Documents/Vscode/py/dft/.venv/lib/python3.12/site-packages/scipy (version 1.17.1)
libxc:  5.2.3
units:  Angstrom and eV
cores: 7
OpenMP: False
OMP_NUM_THREADS: 1

Input parameters:
  convergence: {density: 0.0001,
                eigenstates: 1e-08,
                energy: 1e-06}
  kpts: {gamma: True,
         size: [6, 6, 6]}
  mode: {ecut: 450.00000000000006,
         name: pw}
  occupations: {name: fermi-dirac,
                width: 0.05}
  xc: MGGA_X_R2SCAN+MGGA_C_R2SCAN

System changes: positions, numbers, cell, pbc, initial_charges, initial_magmoms 

Initialize ...

species:
  Cs:
    name: Caesium
    id: fa822afd343f47335d508b9ee4f394c3
    Z: 55.0
    valence: 9
    core: 46
    charge: 0.0
    file: /home/luis-ochoa/Documents/Vscode/py/dft/.venv/lib/python3.12/site-packages/gpaw_data/setups/Cs.PBE.gz
    compensation charges: {type: gauss,
                           rc: 0.33,
                           lmax: 2}
    cutoffs: {filter: 2.06,
              core: 2.51}
    projectors:
      #              energy  rcut
      - 5s(2.00)   -26.706   1.164
      - 6s(1.00)    -2.085   1.164
      - 5p(6.00)   -13.523   1.058
      -  p          13.688   1.058
      -  d           0.000   1.058
  
    # Using partial waves for Cs as LCAO basis

  Pb:
    name: Lead
    id: 66e73b13d76dc837202bcdb13fee58e6
    Z: 82.0
    valence: 14
    core: 68
    charge: 0.0
    file: /home/luis-ochoa/Documents/Vscode/py/dft/.venv/lib/python3.12/site-packages/gpaw_data/setups/Pb.PBE.gz
    compensation charges: {type: gauss,
                           rc: 0.38,
                           lmax: 2}
    cutoffs: {filter: 2.36,
              core: 2.43}
    projectors:
      #              energy  rcut
      - 6s(2.00)   -11.969   1.259
      - 6p(2.00)    -3.506   1.275
      - 5d(10.00)   -21.211   1.217
      -  s          15.243   1.259
      -  p          23.705   1.275
      -  d           6.001   1.217
  
    # Using partial waves for Pb as LCAO basis

  I:
    name: Iodine
    id: 91405a398e4dfe788ff04f57531604ec
    Z: 53.0
    valence: 7
    core: 46
    charge: 0.0
    file: /home/luis-ochoa/Documents/Vscode/py/dft/.venv/lib/python3.12/site-packages/gpaw_data/setups/I.PBE.gz
    compensation charges: {type: gauss,
                           rc: 0.37,
                           lmax: 2}
    cutoffs: {filter: 2.06,
              core: 2.90}
    projectors:
      #              energy  rcut
      - 5s(2.00)   -17.382   1.164
      - 5p(5.00)    -7.088   1.164
      -  s           9.829   1.164
      -  p          20.123   1.164
      -  d           0.000   1.164
  
    # Using partial waves for I as LCAO basis

Reference energy: -1359696.926849  # eV

Spin-paired calculation

Convergence criteria:
 Maximum [total energy] change in last 3 cyles: 1e-06 eV / valence electron
 Maximum integral of absolute [dens]ity change: 0.0001 electrons / valence electron
 Maximum integral of absolute [eigenst]ate change: 1e-08 eV^2 / valence electron
 Maximum number of scf [iter]ations: 333
 (Square brackets indicate name in SCF output, whereas a 'c' in
 the SCF output indicates the quantity has converged.)

Symmetries present (total): 48

  ( 1  0  0)  ( 1  0  0)  ( 1  0  0)  ( 1  0  0)  ( 1  0  0)  ( 1  0  0)
  ( 0  1  0)  ( 0  1  0)  ( 0  0  1)  ( 0  0  1)  ( 0  0 -1)  ( 0  0 -1)
  ( 0  0  1)  ( 0  0 -1)  ( 0  1  0)  ( 0 -1  0)  ( 0  1  0)  ( 0 -1  0)

  ( 1  0  0)  ( 1  0  0)  ( 0  1  0)  ( 0  1  0)  ( 0  1  0)  ( 0  1  0)
  ( 0 -1  0)  ( 0 -1  0)  ( 1  0  0)  ( 1  0  0)  ( 0  0  1)  ( 0  0  1)
  ( 0  0  1)  ( 0  0 -1)  ( 0  0  1)  ( 0  0 -1)  ( 1  0  0)  (-1  0  0)

  ( 0  1  0)  ( 0  1  0)  ( 0  1  0)  ( 0  1  0)  ( 0  0  1)  ( 0  0  1)
  ( 0  0 -1)  ( 0  0 -1)  (-1  0  0)  (-1  0  0)  ( 1  0  0)  ( 1  0  0)
  ( 1  0  0)  (-1  0  0)  ( 0  0  1)  ( 0  0 -1)  ( 0  1  0)  ( 0 -1  0)

  ( 0  0  1)  ( 0  0  1)  ( 0  0  1)  ( 0  0  1)  ( 0  0  1)  ( 0  0  1)
  ( 0  1  0)  ( 0  1  0)  ( 0 -1  0)  ( 0 -1  0)  (-1  0  0)  (-1  0  0)
  ( 1  0  0)  (-1  0  0)  ( 1  0  0)  (-1  0  0)  ( 0  1  0)  ( 0 -1  0)

  ( 0  0 -1)  ( 0  0 -1)  ( 0  0 -1)  ( 0  0 -1)  ( 0  0 -1)  ( 0  0 -1)
  ( 1  0  0)  ( 1  0  0)  ( 0  1  0)  ( 0  1  0)  ( 0 -1  0)  ( 0 -1  0)
  ( 0  1  0)  ( 0 -1  0)  ( 1  0  0)  (-1  0  0)  ( 1  0  0)  (-1  0  0)

  ( 0  0 -1)  ( 0  0 -1)  ( 0 -1  0)  ( 0 -1  0)  ( 0 -1  0)  ( 0 -1  0)
  (-1  0  0)  (-1  0  0)  ( 1  0  0)  ( 1  0  0)  ( 0  0  1)  ( 0  0  1)
  ( 0  1  0)  ( 0 -1  0)  ( 0  0  1)  ( 0  0 -1)  ( 1  0  0)  (-1  0  0)

  ( 0 -1  0)  ( 0 -1  0)  ( 0 -1  0)  ( 0 -1  0)  (-1  0  0)  (-1  0  0)
  ( 0  0 -1)  ( 0  0 -1)  (-1  0  0)  (-1  0  0)  ( 0  1  0)  ( 0  1  0)
  ( 1  0  0)  (-1  0  0)  ( 0  0  1)  ( 0  0 -1)  ( 0  0  1)  ( 0  0 -1)

  (-1  0  0)  (-1  0  0)  (-1  0  0)  (-1  0  0)  (-1  0  0)  (-1  0  0)
  ( 0  0  1)  ( 0  0  1)  ( 0  0 -1)  ( 0  0 -1)  ( 0 -1  0)  ( 0 -1  0)
  ( 0  1  0)  ( 0 -1  0)  ( 0  1  0)  ( 0 -1  0)  ( 0  0  1)  ( 0  0 -1)

216 k-points: 6 x 6 x 6 Monkhorst-Pack grid + [1/12,1/12,1/12]
20 k-points in the irreducible part of the Brillouin zone
       k-points in crystal coordinates                weights
   0:     0.00000000    0.00000000    0.00000000          1/216
   1:     0.16666667    0.00000000    0.00000000          6/216
   2:     0.16666667    0.16666667    0.00000000         12/216
   3:     0.16666667    0.16666667    0.16666667          8/216
   4:     0.33333333    0.00000000    0.00000000          6/216
   5:     0.33333333    0.16666667    0.00000000         24/216
   6:     0.33333333    0.16666667    0.16666667         24/216
   7:     0.33333333    0.33333333    0.00000000         12/216
   8:     0.33333333    0.33333333    0.16666667         24/216
   9:     0.33333333    0.33333333    0.33333333          8/216
          ...
  19:     0.50000000    0.50000000    0.50000000          1/216

Wave functions: Plane wave expansion
  Cutoff energy: 450.000 eV
  Number of coefficients (min, max): 5040, 5141
  Pulay-stress correction: 0.000000 eV/Ang^3 (de/decut=0.000000)
  Using Numpy's FFT
  ScaLapack parameters: grid=1x1, blocksize=None
  Wavefunction extrapolation:
    Improved wavefunction reuse through dual PAW basis 

Occupation numbers: Fermi-Dirac:
  width: 0.0500  # eV
 

Eigensolver
   Davidson(niter=2) 

Densities:
  Coarse grid: 32*32*32 grid
  Fine grid: 64*64*64 grid
  Total Charge: 0.000000 

Density mixing:
  Method: separate
  Backend: pulay
  Linear mixing parameter: 0.05
  old densities: 5
  Damping of long wavelength oscillations: 50 

Hamiltonian:
  XC and Coulomb potentials evaluated on a 64*64*64 grid
  Using the MGGA_X_R2SCAN+MGGA_C_R2SCAN Exchange-Correlation functional
  External potential:
    NoExternalPotential
 

XC parameters: MGGA_X_R2SCAN+MGGA_C_R2SCAN with 2 nearest neighbor stencil

Memory estimate:
  Process memory now: 143.16 MiB
  Calculator: 32.18 MiB
    Density: 17.18 MiB
      Arrays: 6.50 MiB
      Localized functions: 8.18 MiB
      Mixer: 2.50 MiB
    Hamiltonian: 4.97 MiB
      Arrays: 4.25 MiB
      XC: 0.50 MiB
      Poisson: 0.00 MiB
      vbar: 0.22 MiB
    Wavefunctions: 10.03 MiB
      Arrays psit_nG: 4.08 MiB
      Eigensolver: 2.54 MiB
      Projections: 0.06 MiB
      Projectors: 1.96 MiB
      PW-descriptor: 1.41 MiB

Total number of cores used: 7
Parallelization over k-points: 7

Number of atoms: 5
Number of atomic orbitals: 26
Number of bands in calculation: 26
Number of valence electrons: 44
Bands to converge: occupied

... initialized

Initializing position-dependent things.

Density initialized from atomic densities
Creating initial wave functions:
  26 bands from LCAO basis set

     .--------------.  
    /|              |  
   / |              |  
  /  |              |  
 *   |              |  
 |   |              |  
 | I |    Pb        |  
 |   |              |  
 |   .--I-----------.  
 |  /              /   
 | /      I       /    
 |/              /     
 Cs-------------*      

Atomic positions and initial magnetic moments

Positions:
   0 Cs     0.000000    0.000000    0.000000    ( 0.0000,  0.0000,  0.0000)
   1 Pb     3.090000    3.090000    3.090000    ( 0.0000,  0.0000,  0.0000)
   2 I      3.090000    0.000000    3.090000    ( 0.0000,  0.0000,  0.0000)
   3 I      0.000000    3.090000    3.090000    ( 0.0000,  0.0000,  0.0000)
   4 I      3.090000    3.090000    0.000000    ( 0.0000,  0.0000,  0.0000)

Unit cell:
           periodic     x           y           z      points  spacing
  1. axis:    yes    6.180000    0.000000    0.000000    32     0.1931
  2. axis:    yes    0.000000    6.180000    0.000000    32     0.1931
  3. axis:    yes    0.000000    0.000000    6.180000    32     0.1931

  Lengths:   6.180000   6.180000   6.180000
  Angles:   90.000000  90.000000  90.000000

Effective grid spacing dv^(1/3) = 0.1931

     iter     time        total  log10-change:
                         energy   eigst   dens
iter:   1 13:06:47   -91.450001
iter:   2 13:07:27   -93.121786   -1.17  -1.33
iter:   3 13:08:07   -93.086653   -2.09  -1.33
iter:   4 13:08:47   -92.924651   -1.97  -1.35
iter:   5 13:09:27   -92.936199   -2.10  -1.57
iter:   6 13:10:07   -92.960124   -2.78  -1.78
iter:   7 13:10:48   -92.953685   -3.30  -2.32
iter:   8 13:11:28   -92.953648   -4.33  -2.63
iter:   9 13:12:07   -92.953667c  -4.14  -2.74
iter:  10 13:12:46   -92.953666c  -5.04  -3.18
iter:  11 13:13:26   -92.953667c  -6.04  -3.31
iter:  12 13:14:05   -92.953678c  -5.60  -3.33
iter:  13 13:14:46   -92.953681c  -6.49  -3.47
iter:  14 13:15:26   -92.953672c  -6.08  -3.61
iter:  15 13:16:07   -92.953673c  -6.99  -4.09c
iter:  16 13:16:46   -92.953673c  -8.00  -4.24c
iter:  17 13:17:26   -92.953672c  -8.12c -4.37c

Converged after 17 iterations.

Dipole moment: (-0.000000, -0.000000, -0.000000) |e|*Ang

Energy contributions relative to reference atoms: (reference = -1359696.926849)

Kinetic:        +11.208154
Potential:       -9.305340
External:        +0.000000
XC:             -93.418330
Entropy (-ST):   -0.000000
Local:           -1.438157
SIC:             +0.000000
--------------------------
Free energy:    -92.953672
Extrapolated:   -92.953672

Showing only first 2 kpts
 Kpt  Band  Eigenvalues  Occupancy
  0    20      1.21646    2.00000
  0    21      1.21646    2.00000
  0    22      6.22643    0.00000
  0    23      9.17959    0.00000

  1    20      1.17451    2.00000
  1    21      1.18669    2.00000
  1    22      6.51421    0.00000
  1    23      7.14968    0.00000


Fermi level: 3.68824

Gap: 1.378 eV
Transition (v -> c):
  (s=0, k=19, n=21, [0.50, 0.50, 0.50]) -> (s=0, k=19, n=22, [0.50, 0.50, 0.50])
No difference between direct/indirect transitions
Writing to calculations/alpha/06_r2scan/r2scan.gpw (mode='')

Timing:                              incl.     excl.
-----------------------------------------------------------
Hamiltonian:                         1.744     0.040   0.0% |
 Atomic:                             0.985     0.985   0.1% |
  XC Correction:                     0.000     0.000   0.0% |
 Calculate atomic Hamiltonians:      0.065     0.065   0.0% |
 Communicate:                        0.000     0.000   0.0% |
 Initialize Hamiltonian:             0.000     0.000   0.0% |
 Poisson:                            0.046     0.046   0.0% |
 XC 3D grid:                         0.608     0.608   0.1% |
LCAO initialization:                 1.460     0.203   0.0% |
 LCAO eigensolver:                   0.717     0.000   0.0% |
  Calculate projections:             0.000     0.000   0.0% |
  DenseAtomicCorrection:             0.001     0.001   0.0% |
  Distribute overlap matrix:         0.000     0.000   0.0% |
  Orbital Layouts:                   0.586     0.586   0.1% |
  Potential matrix:                  0.088     0.088   0.0% |
  Sum over cells:                    0.041     0.041   0.0% |
 LCAO to grid:                       0.460     0.460   0.1% |
 Set positions (LCAO WFS):           0.080     0.016   0.0% |
  Basic WFS set positions:           0.009     0.009   0.0% |
  Basis functions set positions:     0.000     0.000   0.0% |
  P tci:                             0.024     0.024   0.0% |
  ST tci:                            0.023     0.023   0.0% |
  mktci:                             0.008     0.008   0.0% |
PWDescriptor:                        0.007     0.007   0.0% |
SCF-cycle:                         680.929   198.992  29.0% |-----------|
 Davidson:                         446.401    58.478   8.5% |--|
  Apply H:                          26.127    25.879   3.8% |-|
   HMM T:                            0.248     0.248   0.0% |
  Subspace diag:                    68.382     0.004   0.0% |
   calc_h_matrix:                   61.342    43.313   6.3% |--|
    Apply H:                        18.029    17.942   2.6% ||
     HMM T:                          0.087     0.087   0.0% |
   diagonalize:                      3.250     3.250   0.5% |
   rotate_psi:                       3.786     3.786   0.6% |
  calc. matrices:                  263.970   214.821  31.3% |------------|
   Apply H:                         49.149    48.966   7.1% |--|
    HMM T:                           0.183     0.183   0.0% |
  diagonalize:                      22.601    22.601   3.3% ||
  rotate_psi:                        6.843     6.843   1.0% |
 Density:                           11.822     0.000   0.0% |
  Atomic density matrices:           0.083     0.083   0.0% |
  Mix:                               8.383     8.383   1.2% |
  Multipole moments:                 0.003     0.003   0.0% |
  Pseudo density:                    3.352     1.879   0.3% |
   Symmetrize density:               1.473     1.473   0.2% |
 Hamiltonian:                       20.747     1.406   0.2% |
  Atomic:                            2.882     2.882   0.4% |
   XC Correction:                    0.000     0.000   0.0% |
  Calculate atomic Hamiltonians:     1.080     1.080   0.2% |
  Communicate:                       0.001     0.001   0.0% |
  Poisson:                           0.477     0.477   0.1% |
  XC 3D grid:                       14.900    14.900   2.2% ||
 Orthonormalize:                     2.967     0.000   0.0% |
  calc_s_matrix:                     1.331     1.331   0.2% |
  inverse-cholesky:                  0.000     0.000   0.0% |
  projections:                       1.540     1.540   0.2% |
  rotate_psi_s:                      0.096     0.096   0.0% |
Set symmetry:                        0.030     0.030   0.0% |
Other:                               1.542     1.542   0.2% |
-----------------------------------------------------------
Total:                                       685.712 100.0%

Memory usage: 215.31 MiB
Date: Tue May  5 13:17:26 2026
