
  ___ ___ ___ _ _ _  
 |   |   |_  | | | | 
 | | | | | . | | | | 
 |__ |  _|___|_____|  25.7.0
 |___|_|             

User:   luis-ochoa@luis-pc
Date:   Sat May  9 07:45:27 2026
Arch:   x86_64
Pid:    140642
CWD:    /home/luis-ochoa/Documents/Vscode/py/dft
Python: 3.12.3
gpaw:   /home/luis-ochoa/Documents/Vscode/py/dft/.venv/lib/python3.12/site-packages/gpaw
_gpaw:  /home/luis-ochoa/Documents/Vscode/py/dft/.venv/lib/python3.12/site-packages/
        _gpaw.cpython-312-x86_64-linux-gnu.so
ase:    /home/luis-ochoa/Documents/Vscode/py/dft/.venv/lib/python3.12/site-packages/ase (version 3.28.0)
numpy:  /home/luis-ochoa/Documents/Vscode/py/dft/.venv/lib/python3.12/site-packages/numpy (version 2.4.4)
scipy:  /home/luis-ochoa/Documents/Vscode/py/dft/.venv/lib/python3.12/site-packages/scipy (version 1.17.1)
libxc:  5.2.3
units:  Angstrom and eV
cores: 7
OpenMP: False
OMP_NUM_THREADS: 1

Reading from /home/luis-ochoa/Documents/Vscode/py/dft/calculations/top8_pbe/CsPbI3/02_scf/scf.gpw
Read dipole, energy, free_energy, magmom, magmoms
Reading input parameters:
  convergence: {bands: occupied,
                density: 0.0001,
                eigenstates: 4e-08,
                energy: 1e-08}
  kpts: {gamma: True,
         size: [4, 4, 4]}
  mixer: {backend: pulay,
          beta: 0.05,
          method: separate,
          nmaxold: 5,
          weight: 50.0}
  mode: {ecut: 450.00000000000006,
         name: pw}
  symmetry: off
  xc: PBE

Initialize ...

species:
  Cs:
    name: Caesium
    id: fa822afd343f47335d508b9ee4f394c3
    Z: 55.0
    valence: 9
    core: 46
    charge: 0.0
    file: /home/luis-ochoa/.gpaw/gpaw-setups-24.11.0/Cs.PBE.gz
    compensation charges: {type: gauss,
                           rc: 0.33,
                           lmax: 2}
    cutoffs: {filter: 2.06,
              core: 2.51}
    projectors:
      #              energy  rcut
      - 5s(2.00)   -26.706   1.164
      - 6s(1.00)    -2.085   1.164
      - 5p(6.00)   -13.523   1.058
      -  p          13.688   1.058
      -  d           0.000   1.058
  
    # Using partial waves for Cs as LCAO basis

  Pb:
    name: Lead
    id: 66e73b13d76dc837202bcdb13fee58e6
    Z: 82.0
    valence: 14
    core: 68
    charge: 0.0
    file: /home/luis-ochoa/.gpaw/gpaw-setups-24.11.0/Pb.PBE.gz
    compensation charges: {type: gauss,
                           rc: 0.38,
                           lmax: 2}
    cutoffs: {filter: 2.36,
              core: 2.43}
    projectors:
      #              energy  rcut
      - 6s(2.00)   -11.969   1.259
      - 6p(2.00)    -3.506   1.275
      - 5d(10.00)   -21.211   1.217
      -  s          15.243   1.259
      -  p          23.705   1.275
      -  d           6.001   1.217
  
    # Using partial waves for Pb as LCAO basis

  I:
    name: Iodine
    id: 91405a398e4dfe788ff04f57531604ec
    Z: 53.0
    valence: 7
    core: 46
    charge: 0.0
    file: /home/luis-ochoa/.gpaw/gpaw-setups-24.11.0/I.PBE.gz
    compensation charges: {type: gauss,
                           rc: 0.37,
                           lmax: 2}
    cutoffs: {filter: 2.06,
              core: 2.90}
    projectors:
      #              energy  rcut
      - 5s(2.00)   -17.382   1.164
      - 5p(5.00)    -7.088   1.164
      -  s           9.829   1.164
      -  p          20.123   1.164
      -  d           0.000   1.164
  
    # Using partial waves for I as LCAO basis

Reference energy: -1359696.926849  # eV

Spin-paired calculation

Convergence criteria:
 Maximum [total energy] change in last 3 cyles: 1e-08 eV / valence electron
 Maximum integral of absolute [dens]ity change: 0.0001 electrons / valence electron
 Maximum integral of absolute [eigenst]ate change: 4e-08 eV^2 / valence electron
 Maximum number of scf [iter]ations: 333
 (Square brackets indicate name in SCF output, whereas a 'c' in
 the SCF output indicates the quantity has converged.)

Symmetries present (total): 1

  ( 1  0  0)
  ( 0  1  0)
  ( 0  0  1)

64 k-points: 4 x 4 x 4 Monkhorst-Pack grid + [1/8,1/8,1/8]
64 k-points in the irreducible part of the Brillouin zone
       k-points in crystal coordinates                weights
   0:    -0.25000000   -0.25000000   -0.25000000          1/64
   1:    -0.25000000   -0.25000000    0.00000000          1/64
   2:    -0.25000000   -0.25000000    0.25000000          1/64
   3:    -0.25000000   -0.25000000    0.50000000          1/64
   4:    -0.25000000    0.00000000   -0.25000000          1/64
   5:    -0.25000000    0.00000000    0.00000000          1/64
   6:    -0.25000000    0.00000000    0.25000000          1/64
   7:    -0.25000000    0.00000000    0.50000000          1/64
   8:    -0.25000000    0.25000000   -0.25000000          1/64
   9:    -0.25000000    0.25000000    0.00000000          1/64
          ...
  63:     0.50000000    0.50000000    0.50000000          1/64

Wave functions: Plane wave expansion
  Cutoff energy: 450.000 eV
  Number of coefficients (min, max): 5390, 5452
  Pulay-stress correction: 0.000000 eV/Ang^3 (de/decut=0.000000)
  Using Numpy's FFT
  ScaLapack parameters: grid=1x1, blocksize=None
  Wavefunction extrapolation:
    Improved wavefunction reuse through dual PAW basis 

Occupation numbers: Fermi-Dirac:
  width: 0.1000  # eV
 

Eigensolver
   Davidson(niter=2) 

Densities:
  Coarse grid: 32*32*32 grid
  Fine grid: 64*64*64 grid
  Total Charge: 0.000000 

Density mixing:
  Method: separate
  Backend: pulay
  Linear mixing parameter: 0.05
  old densities: 5
  Damping of long wavelength oscillations: 50 

Hamiltonian:
  XC and Coulomb potentials evaluated on a 64*64*64 grid
  Using the PBE Exchange-Correlation functional
  External potential:
    NoExternalPotential
 

XC parameters: PBE with 2 nearest neighbor stencil

Memory estimate:
  Process memory now: 523.32 MiB
  Calculator: 55.79 MiB
    Density: 17.63 MiB
      Arrays: 6.50 MiB
      Localized functions: 8.63 MiB
      Mixer: 2.50 MiB
    Hamiltonian: 4.49 MiB
      Arrays: 4.25 MiB
      XC: 0.00 MiB
      Poisson: 0.00 MiB
      vbar: 0.24 MiB
    Wavefunctions: 33.67 MiB
      Arrays psit_nG: 19.47 MiB
      Eigensolver: 2.68 MiB
      Projections: 0.25 MiB
      Projectors: 9.27 MiB
      PW-descriptor: 2.00 MiB

Total number of cores used: 7
Parallelization over k-points: 7

Number of atoms: 5
Number of atomic orbitals: 26
Number of bands in calculation: 26
Number of valence electrons: 44
Bands to converge: occupied

... initialized

Input parameters:
  fixdensity: True
  kpts: [[ 0.5         0.5         0.        ],
         [ 0.5050106   0.5         0.        ],
         [ 0.4949894   0.5         0.        ],
         ...,
         [ 0.5         0.5        -0.02505298],
         [ 0.5         0.5         0.03006357],
         [ 0.5         0.5        -0.03006357]]

Initialize ...

species:
  Cs:
    name: Caesium
    id: fa822afd343f47335d508b9ee4f394c3
    Z: 55.0
    valence: 9
    core: 46
    charge: 0.0
    file: /home/luis-ochoa/.gpaw/gpaw-setups-24.11.0/Cs.PBE.gz
    compensation charges: {type: gauss,
                           rc: 0.33,
                           lmax: 2}
    cutoffs: {filter: 2.06,
              core: 2.51}
    projectors:
      #              energy  rcut
      - 5s(2.00)   -26.706   1.164
      - 6s(1.00)    -2.085   1.164
      - 5p(6.00)   -13.523   1.058
      -  p          13.688   1.058
      -  d           0.000   1.058
  
    # Using partial waves for Cs as LCAO basis

  Pb:
    name: Lead
    id: 66e73b13d76dc837202bcdb13fee58e6
    Z: 82.0
    valence: 14
    core: 68
    charge: 0.0
    file: /home/luis-ochoa/.gpaw/gpaw-setups-24.11.0/Pb.PBE.gz
    compensation charges: {type: gauss,
                           rc: 0.38,
                           lmax: 2}
    cutoffs: {filter: 2.36,
              core: 2.43}
    projectors:
      #              energy  rcut
      - 6s(2.00)   -11.969   1.259
      - 6p(2.00)    -3.506   1.275
      - 5d(10.00)   -21.211   1.217
      -  s          15.243   1.259
      -  p          23.705   1.275
      -  d           6.001   1.217
  
    # Using partial waves for Pb as LCAO basis

  I:
    name: Iodine
    id: 91405a398e4dfe788ff04f57531604ec
    Z: 53.0
    valence: 7
    core: 46
    charge: 0.0
    file: /home/luis-ochoa/.gpaw/gpaw-setups-24.11.0/I.PBE.gz
    compensation charges: {type: gauss,
                           rc: 0.37,
                           lmax: 2}
    cutoffs: {filter: 2.06,
              core: 2.90}
    projectors:
      #              energy  rcut
      - 5s(2.00)   -17.382   1.164
      - 5p(5.00)    -7.088   1.164
      -  s           9.829   1.164
      -  p          20.123   1.164
      -  d           0.000   1.164
  
    # Using partial waves for I as LCAO basis

Reference energy: -1359696.926849  # eV

Spin-paired calculation

Convergence criteria:
 Maximum [total energy] change in last 3 cyles: 1e-08 eV / valence electron
 Maximum integral of absolute [dens]ity change: 0.0001 electrons / valence electron
 Maximum integral of absolute [eigenst]ate change: 4e-08 eV^2 / valence electron
 Maximum number of scf [iter]ations: 333
 (Square brackets indicate name in SCF output, whereas a 'c' in
 the SCF output indicates the quantity has converged.)

Symmetries present (total): 1

  ( 1  0  0)
  ( 0  1  0)
  ( 0  0  1)

37 k-points
37 k-points in the irreducible part of the Brillouin zone
       k-points in crystal coordinates                weights
   0:     0.50000000    0.50000000    0.00000000       0.02702703
   1:     0.50501060    0.50000000    0.00000000       0.02702703
   2:     0.49498940    0.50000000    0.00000000       0.02702703
   3:     0.51002119    0.50000000    0.00000000       0.02702703
   4:     0.48997881    0.50000000    0.00000000       0.02702703
   5:     0.51503179    0.50000000    0.00000000       0.02702703
   6:     0.48496821    0.50000000    0.00000000       0.02702703
   7:     0.52004238    0.50000000    0.00000000       0.02702703
   8:     0.47995762    0.50000000    0.00000000       0.02702703
   9:     0.52505298    0.50000000    0.00000000       0.02702703
          ...
  36:     0.50000000    0.50000000   -0.03006357       0.02702703

Wave functions: Plane wave expansion
  Cutoff energy: 450.000 eV
  Number of coefficients (min, max): 5400, 5440
  Pulay-stress correction: 0.000000 eV/Ang^3 (de/decut=0.000000)
  Using Numpy's FFT
  ScaLapack parameters: grid=1x1, blocksize=None
  Wavefunction extrapolation:
    Improved wavefunction reuse through dual PAW basis 

Occupation numbers: Fermi-Dirac:
  width: 0.1000  # eV
 

Eigensolver
   Davidson(niter=2) 

No density mixing

XC parameters: PBE with 2 nearest neighbor stencil

Memory estimate:
  Process memory now: 523.32 MiB
  Calculator: 42.57 MiB
    Density: 17.63 MiB
      Arrays: 6.50 MiB
      Localized functions: 8.63 MiB
      Mixer: 2.50 MiB
    Hamiltonian: 4.49 MiB
      Arrays: 4.25 MiB
      XC: 0.00 MiB
      Poisson: 0.00 MiB
      vbar: 0.24 MiB
    Wavefunctions: 20.45 MiB
      Arrays psit_nG: 10.79 MiB
      Eigensolver: 2.68 MiB
      Projections: 0.14 MiB
      Projectors: 5.18 MiB
      PW-descriptor: 1.67 MiB

Total number of cores used: 7
Parallelization over k-points: 7

Number of atoms: 5
Number of atomic orbitals: 26
Number of bands in calculation: 26
Number of valence electrons: 44
Bands to converge: occupied

... initialized

Initializing position-dependent things.

Creating initial wave functions:
  26 bands from LCAO basis set

     .--------------.  
    /|              |  
   / |              |  
  /  |              |  
 *   |              |  
 |   |              |  
 |   |    Cs        |  
 |   |              |  
 I   .--------------.  
 |  /              /   
 | I              /    
 |/              /     
 Pb-----I-------*      

Atomic positions and initial magnetic moments

Positions:
   0 Cs     3.148250    3.148250    3.148250    ( 0.0000,  0.0000,  0.0000)
   1 Pb     0.000000    0.000000    0.000000    ( 0.0000,  0.0000,  0.0000)
   2 I      3.148250    0.000000    0.000000    ( 0.0000,  0.0000,  0.0000)
   3 I      0.000000    3.148250    0.000000    ( 0.0000,  0.0000,  0.0000)
   4 I      0.000000    0.000000    3.148250    ( 0.0000,  0.0000,  0.0000)

Unit cell:
           periodic     x           y           z      points  spacing
  1. axis:    yes    6.296500    0.000000    0.000000    32     0.1968
  2. axis:    yes    0.000000    6.296500    0.000000    32     0.1968
  3. axis:    yes    0.000000    0.000000    6.296500    32     0.1968

  Lengths:   6.296500   6.296500   6.296500
  Angles:   90.000000  90.000000  90.000000

Effective grid spacing dv^(1/3) = 0.1968

     iter     time        total  log10-change:
                         energy   eigst   dens
iter:   1 07:45:32   -12.195414               c
iter:   2 07:45:34   -12.247212   -1.09       c
iter:   3 07:45:36   -12.252568   -2.01       c
iter:   4 07:45:38   -12.253311   -2.86       c
iter:   5 07:45:40   -12.253427   -3.68       c
iter:   6 07:45:43   -12.253447   -4.49       c
iter:   7 07:45:45   -12.253451   -5.30       c
iter:   8 07:45:47   -12.253451   -6.04       c
iter:   9 07:45:49   -12.253451   -6.72       c
iter:  10 07:45:51   -12.253451c  -7.30       c
iter:  11 07:45:53   -12.253451c  -7.86c      c

Converged after 11 iterations.

Dipole moment: (-0.000000, -0.000000, -0.000000) |e|*Ang

Energy contributions relative to reference atoms: (reference = -1359696.926849)

Kinetic:        +33.896600
Potential:      -31.908979
External:        +0.000000
XC:             -14.133923
Entropy (-ST):   -0.000094
Local:           -0.107103
SIC:             +0.000000
--------------------------
Free energy:    -12.253499
Extrapolated:   -12.253451

Showing only first 2 kpts
 Kpt  Band  Eigenvalues  Occupancy
  0    20      1.56918    2.00000
  0    21      2.00349    1.99996
  0    22      4.23576    0.00002
  0    23      4.23576    0.00002

  1    20      1.56906    2.00000
  1    21      2.00297    1.99996
  1    22      4.23586    0.00002
  1    23      4.23691    0.00002


Fermi level: 3.08579

Gap: 2.228 eV
Transition (v -> c):
  (s=0, k=36, n=21, [0.50, 0.50, -0.03]) -> (s=0, k=35, n=22, [0.50, 0.50, 0.03])
Direct/indirect transitions are different
Direct gap: 2.228 eV
Transition at: (s=0, k=35, n=21, [0.50, 0.50, 0.03])
Writing to /home/luis-ochoa/Documents/Vscode/py/dft/calculations/top8_pbe/CsPbI3/10_effective_masses/effmass_fine.gpw (mode='')

Timing:                              incl.     excl.
-----------------------------------------------------------
Hamiltonian:                         0.190     0.001   0.0% |
 Atomic:                             0.058     0.058   0.2% |
  XC Correction:                     0.000     0.000   0.0% |
 Calculate atomic Hamiltonians:      0.025     0.025   0.1% |
 Communicate:                        0.000     0.000   0.0% |
 Poisson:                            0.002     0.002   0.0% |
 XC 3D grid:                         0.104     0.104   0.4% |
LCAO initialization:                 1.361     0.205   0.8% |
 LCAO eigensolver:                   0.087     0.000   0.0% |
  Calculate projections:             0.001     0.001   0.0% |
  DenseAtomicCorrection:             0.002     0.002   0.0% |
  Distribute overlap matrix:         0.000     0.000   0.0% |
  Orbital Layouts:                   0.002     0.002   0.0% |
  Potential matrix:                  0.081     0.081   0.3% |
  Sum over cells:                    0.001     0.001   0.0% |
 LCAO to grid:                       0.981     0.981   3.8% |-|
 Set positions (LCAO WFS):           0.088     0.016   0.1% |
  Basic WFS set positions:           0.000     0.000   0.0% |
  Basis functions set positions:     0.000     0.000   0.0% |
  P tci:                             0.035     0.035   0.1% |
  ST tci:                            0.029     0.029   0.1% |
  mktci:                             0.007     0.007   0.0% |
PWDescriptor:                        0.025     0.025   0.1% |
Redistribute:                        0.000     0.000   0.0% |
SCF-cycle:                          23.185     4.944  19.2% |-------|
 Davidson:                          18.147     2.961  11.5% |----|
  Apply H:                           2.828     2.763  10.7% |---|
   HMM T:                            0.066     0.066   0.3% |
  Subspace diag:                     3.722     0.007   0.0% |
   calc_h_matrix:                    3.199     0.377   1.5% ||
    Apply H:                         2.823     2.756  10.7% |---|
     HMM T:                          0.066     0.066   0.3% |
   diagonalize:                      0.025     0.025   0.1% |
   rotate_psi:                       0.491     0.491   1.9% ||
  calc. matrices:                    7.531     1.886   7.3% |--|
   Apply H:                          5.645     5.513  21.4% |--------|
    HMM T:                           0.132     0.132   0.5% |
  diagonalize:                       0.136     0.136   0.5% |
  rotate_psi:                        0.969     0.969   3.8% |-|
 Orthonormalize:                     0.094     0.001   0.0% |
  calc_s_matrix:                     0.018     0.018   0.1% |
  inverse-cholesky:                  0.001     0.001   0.0% |
  projections:                       0.050     0.050   0.2% |
  rotate_psi_s:                      0.024     0.024   0.1% |
Set symmetry:                        0.000     0.000   0.0% |
Other:                               1.002     1.002   3.9% |-|
-----------------------------------------------------------
Total:                                        25.764 100.0%

Memory usage: 523.32 MiB
Date: Sat May  9 07:45:53 2026
