
  ___ ___ ___ _ _ _  
 |   |   |_  | | | | 
 | | | | | . | | | | 
 |__ |  _|___|_____|  25.7.0
 |___|_|             

User:   luis-ochoa@luis-pc
Date:   Sat May  9 09:28:03 2026
Arch:   x86_64
Pid:    172605
CWD:    /home/luis-ochoa/Documents/Vscode/py/dft
Python: 3.12.3
gpaw:   /home/luis-ochoa/Documents/Vscode/py/dft/.venv/lib/python3.12/site-packages/gpaw
_gpaw:  /home/luis-ochoa/Documents/Vscode/py/dft/.venv/lib/python3.12/site-packages/
        _gpaw.cpython-312-x86_64-linux-gnu.so
ase:    /home/luis-ochoa/Documents/Vscode/py/dft/.venv/lib/python3.12/site-packages/ase (version 3.28.0)
numpy:  /home/luis-ochoa/Documents/Vscode/py/dft/.venv/lib/python3.12/site-packages/numpy (version 2.4.4)
scipy:  /home/luis-ochoa/Documents/Vscode/py/dft/.venv/lib/python3.12/site-packages/scipy (version 1.17.1)
libxc:  5.2.3
units:  Angstrom and eV
cores: 7
OpenMP: False
OMP_NUM_THREADS: 1

Reading from /home/luis-ochoa/Documents/Vscode/py/dft/calculations/top8_pbe/FASnBr3/01_relax/relax.gpw
Read dipole, energy, forces, free_energy, magmom, magmoms
Reading input parameters:
  convergence: {bands: occupied,
                density: 0.0001,
                eigenstates: 4e-08,
                energy: 1e-06,
                forces: 0.02}
  kpts: {gamma: True,
         size: [4, 4, 4]}
  mixer: {backend: pulay,
          beta: 0.05,
          method: separate,
          nmaxold: 5,
          weight: 50.0}
  mode: {ecut: 450.00000000000006,
         name: pw}
  symmetry: off
  xc: PBE

Initialize ...

species:
  Sn:
    name: Tin
    id: d1329c6b410f1e0bd923643368775dcd
    Z: 50.0
    valence: 14
    core: 36
    charge: 0.0
    file: /home/luis-ochoa/.gpaw/gpaw-setups-24.11.0/Sn.PBE.gz
    compensation charges: {type: gauss,
                           rc: 0.38,
                           lmax: 2}
    cutoffs: {filter: 2.23,
              core: 2.35}
    projectors:
      #              energy  rcut
      - 5s(2.00)   -10.538   1.201
      - 5p(2.00)    -3.696   1.270
      - 4d(10.00)   -25.845   1.185
      -  s          16.674   1.201
      -  p          23.515   1.270
      -  d           1.367   1.185
  
    # Using partial waves for Sn as LCAO basis

  Br:
    name: Bromine
    id: 39dc90fcf3bf77f2d83386b416c2c495
    Z: 35.0
    valence: 7
    core: 28
    charge: 0.0
    file: /home/luis-ochoa/.gpaw/gpaw-setups-24.11.0/Br.PBE.gz
    compensation charges: {type: gauss,
                           rc: 0.35,
                           lmax: 2}
    cutoffs: {filter: 1.98,
              core: 2.38}
    projectors:
      #              energy  rcut
      - 4s(2.00)   -20.121   1.111
      - 4p(5.00)    -7.861   1.111
      -  s           7.091   1.111
      -  p          19.351   1.111
      -  d           0.000   1.111
  
    # Using partial waves for Br as LCAO basis

  C:
    name: Carbon
    id: 4aa54d4b901d75f77cc0ea3eec22967b
    Z: 6.0
    valence: 4
    core: 2
    charge: 0.0
    file: /home/luis-ochoa/.gpaw/gpaw-setups-24.11.0/C.PBE.gz
    compensation charges: {type: gauss,
                           rc: 0.20,
                           lmax: 2}
    cutoffs: {filter: 1.14,
              core: 1.14}
    projectors:
      #              energy  rcut
      - 2s(2.00)   -13.751   0.635
      - 2p(2.00)    -5.284   0.635
      -  s          13.461   0.635
      -  p          21.927   0.635
      -  d           0.000   0.635
  
    # Using partial waves for C as LCAO basis

  N:
    name: Nitrogen
    id: f7500608b86eaa90eef8b1d9a670dc53
    Z: 7.0
    valence: 5
    core: 2
    charge: 0.0
    file: /home/luis-ochoa/.gpaw/gpaw-setups-24.11.0/N.PBE.gz
    compensation charges: {type: gauss,
                           rc: 0.18,
                           lmax: 2}
    cutoffs: {filter: 1.11,
              core: 0.96}
    projectors:
      #              energy  rcut
      - 2s(2.00)   -18.583   0.603
      - 2p(3.00)    -7.089   0.529
      -  s           8.629   0.603
      -  p          20.123   0.529
      -  d           0.000   0.577
  
    # Using partial waves for N as LCAO basis

  H:
    name: Hydrogen
    id: d65de229564ff8ea4db303e23b6d1ecf
    Z: 1.0
    valence: 1
    core: 0
    charge: 0.0
    file: /home/luis-ochoa/.gpaw/gpaw-setups-24.11.0/H.PBE.gz
    compensation charges: {type: gauss,
                           rc: 0.15,
                           lmax: 2}
    cutoffs: {filter: 0.85,
              core: 0.53}
    projectors:
      #              energy  rcut
      - 1s(1.00)    -6.494   0.476
      -  s          20.717   0.476
      -  p           0.000   0.476
  
    # Using partial waves for H as LCAO basis

Reference energy: -384770.958430  # eV

Spin-paired calculation

Convergence criteria:
 Maximum [total energy] change in last 3 cyles: 1e-06 eV / valence electron
 Maximum integral of absolute [dens]ity change: 0.0001 electrons / valence electron
 Maximum integral of absolute [eigenst]ate change: 4e-08 eV^2 / valence electron
 Maximum change in the atomic [forces] across last 2 cycles: 0.02 eV/Ang OR
Maximum error relative to the maximum force is below inf
 Maximum number of scf [iter]ations: 333
 (Square brackets indicate name in SCF output, whereas a 'c' in
 the SCF output indicates the quantity has converged.)

Symmetries present (total): 1

  ( 1  0  0)
  ( 0  1  0)
  ( 0  0  1)

64 k-points: 4 x 4 x 4 Monkhorst-Pack grid + [1/8,1/8,1/8]
64 k-points in the irreducible part of the Brillouin zone
       k-points in crystal coordinates                weights
   0:    -0.25000000   -0.25000000   -0.25000000          1/64
   1:    -0.25000000   -0.25000000    0.00000000          1/64
   2:    -0.25000000   -0.25000000    0.25000000          1/64
   3:    -0.25000000   -0.25000000    0.50000000          1/64
   4:    -0.25000000    0.00000000   -0.25000000          1/64
   5:    -0.25000000    0.00000000    0.00000000          1/64
   6:    -0.25000000    0.00000000    0.25000000          1/64
   7:    -0.25000000    0.00000000    0.50000000          1/64
   8:    -0.25000000    0.25000000   -0.25000000          1/64
   9:    -0.25000000    0.25000000    0.00000000          1/64
          ...
  63:     0.50000000    0.50000000    0.50000000          1/64

Wave functions: Plane wave expansion
  Cutoff energy: 450.000 eV
  Number of coefficients (min, max): 4515, 4632
  Pulay-stress correction: 0.000000 eV/Ang^3 (de/decut=0.000000)
  Using Numpy's FFT
  ScaLapack parameters: grid=1x1, blocksize=None
  Wavefunction extrapolation:
    Improved wavefunction reuse through dual PAW basis 

Occupation numbers: Fermi-Dirac:
  width: 0.1000  # eV
 

Eigensolver
   Davidson(niter=2) 

Densities:
  Coarse grid: 30*30*30 grid
  Fine grid: 60*60*60 grid
  Total Charge: 0.000000 

Density mixing:
  Method: separate
  Backend: pulay
  Linear mixing parameter: 0.05
  old densities: 5
  Damping of long wavelength oscillations: 50 

Hamiltonian:
  XC and Coulomb potentials evaluated on a 60*60*60 grid
  Using the PBE Exchange-Correlation functional
  External potential:
    NoExternalPotential
 

XC parameters: PBE with 2 nearest neighbor stencil

Memory estimate:
  Process memory now: 273.69 MiB
  Calculator: 60.16 MiB
    Density: 17.09 MiB
      Arrays: 5.36 MiB
      Localized functions: 9.68 MiB
      Mixer: 2.06 MiB
    Hamiltonian: 3.80 MiB
      Arrays: 3.50 MiB
      XC: 0.00 MiB
      Poisson: 0.00 MiB
      vbar: 0.30 MiB
    Wavefunctions: 39.27 MiB
      Arrays psit_nG: 23.54 MiB
      Eigensolver: 3.18 MiB
      Projections: 0.61 MiB
      Projectors: 10.27 MiB
      PW-descriptor: 1.67 MiB

Total number of cores used: 7
Parallelization over k-points: 7

Number of atoms: 12
Number of atomic orbitals: 38
Number of bands in calculation: 37
Number of valence electrons: 54
Bands to converge: occupied

... initialized

Input parameters:
  convergence: {energy: 1e-08}

Initialize ...

species:
  Sn:
    name: Tin
    id: d1329c6b410f1e0bd923643368775dcd
    Z: 50.0
    valence: 14
    core: 36
    charge: 0.0
    file: /home/luis-ochoa/.gpaw/gpaw-setups-24.11.0/Sn.PBE.gz
    compensation charges: {type: gauss,
                           rc: 0.38,
                           lmax: 2}
    cutoffs: {filter: 2.23,
              core: 2.35}
    projectors:
      #              energy  rcut
      - 5s(2.00)   -10.538   1.201
      - 5p(2.00)    -3.696   1.270
      - 4d(10.00)   -25.845   1.185
      -  s          16.674   1.201
      -  p          23.515   1.270
      -  d           1.367   1.185
  
    # Using partial waves for Sn as LCAO basis

  Br:
    name: Bromine
    id: 39dc90fcf3bf77f2d83386b416c2c495
    Z: 35.0
    valence: 7
    core: 28
    charge: 0.0
    file: /home/luis-ochoa/.gpaw/gpaw-setups-24.11.0/Br.PBE.gz
    compensation charges: {type: gauss,
                           rc: 0.35,
                           lmax: 2}
    cutoffs: {filter: 1.98,
              core: 2.38}
    projectors:
      #              energy  rcut
      - 4s(2.00)   -20.121   1.111
      - 4p(5.00)    -7.861   1.111
      -  s           7.091   1.111
      -  p          19.351   1.111
      -  d           0.000   1.111
  
    # Using partial waves for Br as LCAO basis

  C:
    name: Carbon
    id: 4aa54d4b901d75f77cc0ea3eec22967b
    Z: 6.0
    valence: 4
    core: 2
    charge: 0.0
    file: /home/luis-ochoa/.gpaw/gpaw-setups-24.11.0/C.PBE.gz
    compensation charges: {type: gauss,
                           rc: 0.20,
                           lmax: 2}
    cutoffs: {filter: 1.14,
              core: 1.14}
    projectors:
      #              energy  rcut
      - 2s(2.00)   -13.751   0.635
      - 2p(2.00)    -5.284   0.635
      -  s          13.461   0.635
      -  p          21.927   0.635
      -  d           0.000   0.635
  
    # Using partial waves for C as LCAO basis

  N:
    name: Nitrogen
    id: f7500608b86eaa90eef8b1d9a670dc53
    Z: 7.0
    valence: 5
    core: 2
    charge: 0.0
    file: /home/luis-ochoa/.gpaw/gpaw-setups-24.11.0/N.PBE.gz
    compensation charges: {type: gauss,
                           rc: 0.18,
                           lmax: 2}
    cutoffs: {filter: 1.11,
              core: 0.96}
    projectors:
      #              energy  rcut
      - 2s(2.00)   -18.583   0.603
      - 2p(3.00)    -7.089   0.529
      -  s           8.629   0.603
      -  p          20.123   0.529
      -  d           0.000   0.577
  
    # Using partial waves for N as LCAO basis

  H:
    name: Hydrogen
    id: d65de229564ff8ea4db303e23b6d1ecf
    Z: 1.0
    valence: 1
    core: 0
    charge: 0.0
    file: /home/luis-ochoa/.gpaw/gpaw-setups-24.11.0/H.PBE.gz
    compensation charges: {type: gauss,
                           rc: 0.15,
                           lmax: 2}
    cutoffs: {filter: 0.85,
              core: 0.53}
    projectors:
      #              energy  rcut
      - 1s(1.00)    -6.494   0.476
      -  s          20.717   0.476
      -  p           0.000   0.476
  
    # Using partial waves for H as LCAO basis

Reference energy: -384770.958430  # eV

Spin-paired calculation

Convergence criteria:
 Maximum [total energy] change in last 3 cyles: 1e-08 eV / valence electron
 Maximum integral of absolute [dens]ity change: 0.0001 electrons / valence electron
 Maximum integral of absolute [eigenst]ate change: 4e-08 eV^2 / valence electron
 Maximum number of scf [iter]ations: 333
 (Square brackets indicate name in SCF output, whereas a 'c' in
 the SCF output indicates the quantity has converged.)

Occupation numbers: Fermi-Dirac:
  width: 0.1000  # eV
 

Eigensolver
   Davidson(niter=2) 

Density mixing:
  Method: separate
  Backend: pulay
  Linear mixing parameter: 0.05
  old densities: 5
  Damping of long wavelength oscillations: 50 

XC parameters: PBE with 2 nearest neighbor stencil

Memory estimate:
  Process memory now: 273.69 MiB
  Calculator: 60.16 MiB
    Density: 17.09 MiB
      Arrays: 5.36 MiB
      Localized functions: 9.68 MiB
      Mixer: 2.06 MiB
    Hamiltonian: 3.80 MiB
      Arrays: 3.50 MiB
      XC: 0.00 MiB
      Poisson: 0.00 MiB
      vbar: 0.30 MiB
    Wavefunctions: 39.27 MiB
      Arrays psit_nG: 23.54 MiB
      Eigensolver: 3.18 MiB
      Projections: 0.61 MiB
      Projectors: 10.27 MiB
      PW-descriptor: 1.67 MiB

Total number of cores used: 7
Parallelization over k-points: 7

Number of atoms: 12
Number of atomic orbitals: 38
Number of bands in calculation: 37
Number of valence electrons: 54
Bands to converge: occupied

... initialized

Initializing position-dependent things.

Creating initial wave functions:
  37 bands from LCAO basis set

     .--------------.  
    /|      Br      |  
   Br|              |  
  /  |              |  
 *   Br   H     Sn  |  
 |   | H  C    H    |  
 |   |H N    NH     |  
 |   .--------------.  
 |  /              /   
 | /              /    
 |/              /     
 *--------------*      

Atomic positions and initial magnetic moments

Positions:
   0 Sn    -0.000000    0.000000   -0.210391    ( 0.0000,  0.0000,  0.0000)
   1 Br     2.970000   -0.000006   -0.815766    ( 0.0000,  0.0000,  0.0000)
   2 Br     0.000000    2.969997   -0.254717    ( 0.0000,  0.0000,  0.0000)
   3 Br     0.000000   -0.000005    2.832751    ( 0.0000,  0.0000,  0.0000)
   4 C      2.970000    2.969995    3.462130    ( 0.0000,  0.0000,  0.0000)
   5 N      1.801692    2.970001    2.740949    ( 0.0000,  0.0000,  0.0000)
   6 N      4.138308    2.970000    2.740950    ( 0.0000,  0.0000,  0.0000)
   7 H      2.970000    2.969970    4.567456    ( 0.0000,  0.0000,  0.0000)
   8 H      1.226125    3.768484    3.117330    ( 0.0000,  0.0000,  0.0000)
   9 H      1.226119    2.171539    3.117365    ( 0.0000,  0.0000,  0.0000)
  10 H      4.713875    3.768485    3.117330    ( 0.0000,  0.0000,  0.0000)
  11 H      4.713881    2.171539    3.117366    ( 0.0000,  0.0000,  0.0000)

Unit cell:
           periodic     x           y           z      points  spacing
  1. axis:    yes    5.940000    0.000000    0.000000    30     0.1980
  2. axis:    yes    0.000000    5.940000    0.000000    30     0.1980
  3. axis:    yes    0.000000    0.000000    5.940000    30     0.1980

  Lengths:   5.940000   5.940000   5.940000
  Angles:   90.000000  90.000000  90.000000

Effective grid spacing dv^(1/3) = 0.1980

     iter     time        total  log10-change:
                         energy   eigst   dens
iter:   1 09:28:13   -51.607153   +0.19
iter:   2 09:28:18   -51.719191   -1.33  -2.29
iter:   3 09:28:23   -51.725596   -2.45  -3.15
iter:   4 09:28:29   -51.726218   -3.50  -3.46
iter:   5 09:28:34   -51.726336   -4.60  -3.37
iter:   6 09:28:39   -51.726349   -5.61  -3.52
iter:   7 09:28:44   -51.726324   -6.56  -3.61
iter:   8 09:28:49   -51.726330   -6.01  -3.64
iter:   9 09:28:55   -51.726342   -6.82  -4.15c
iter:  10 09:29:00   -51.726338   -6.60  -3.97
iter:  11 09:29:05   -51.726339   -8.24c -4.70c
iter:  12 09:29:10   -51.726343   -8.86c -4.69c
iter:  13 09:29:16   -51.726343   -8.38c -4.85c
iter:  14 09:29:21   -51.726339   -8.77c -5.13c
iter:  15 09:29:26   -51.726338  -10.17c -5.25c
iter:  16 09:29:31   -51.726339c  -9.68c -5.38c

Converged after 16 iterations.

Dipole moment: (-0.000002, 0.000457, 20.238001) |e|*Ang

Energy contributions relative to reference atoms: (reference = -384770.958430)

Kinetic:        +49.255839
Potential:      -52.329905
External:        +0.000000
XC:             -48.428076
Entropy (-ST):   -0.028317
Local:           -0.210039
SIC:             +0.000000
--------------------------
Free energy:    -51.740497
Extrapolated:   -51.726339

Showing only first 2 kpts
 Kpt  Band  Eigenvalues  Occupancy
  0    25      0.02524    2.00000
  0    26      0.24325    1.99997
  0    27      1.81576    0.02089
  0    28      4.27720    0.00000

  1    25     -0.02198    2.00000
  1    26      0.38011    1.99989
  1    27      1.81268    0.02153
  1    28      4.62522    0.00000


Fermi level: 1.36062

No gap
No difference between direct/indirect transitions
Writing to /home/luis-ochoa/Documents/Vscode/py/dft/calculations/top8_pbe/FASnBr3/02_scf/scf.gpw (mode='all')

Timing:                              incl.     excl.
-----------------------------------------------------------
Hamiltonian:                         0.218     0.001   0.0% |
 Atomic:                             0.083     0.033   0.0% |
  XC Correction:                     0.050     0.050   0.1% |
 Calculate atomic Hamiltonians:      0.050     0.050   0.1% |
 Communicate:                        0.000     0.000   0.0% |
 Poisson:                            0.001     0.001   0.0% |
 XC 3D grid:                         0.082     0.082   0.1% |
LCAO initialization:                 4.199     0.329   0.4% |
 LCAO eigensolver:                   0.260     0.000   0.0% |
  Calculate projections:             0.004     0.004   0.0% |
  DenseAtomicCorrection:             0.009     0.009   0.0% |
  Distribute overlap matrix:         0.000     0.000   0.0% |
  Orbital Layouts:                   0.006     0.006   0.0% |
  Potential matrix:                  0.238     0.238   0.3% |
  Sum over cells:                    0.003     0.003   0.0% |
 LCAO to grid:                       3.045     3.045   3.4% ||
 Set positions (LCAO WFS):           0.564     0.090   0.1% |
  Basic WFS set positions:           0.001     0.001   0.0% |
  Basis functions set positions:     0.000     0.000   0.0% |
  P tci:                             0.219     0.219   0.2% |
  ST tci:                            0.233     0.233   0.3% |
  mktci:                             0.021     0.021   0.0% |
PWDescriptor:                        0.021     0.021   0.0% |
Redistribute:                        0.003     0.003   0.0% |
SCF-cycle:                          83.531     8.384   9.4% |---|
 Davidson:                          65.550    12.716  14.3% |-----|
  Apply H:                           9.220     9.019  10.1% |---|
   HMM T:                            0.201     0.201   0.2% |
  Subspace diag:                    12.863     0.017   0.0% |
   calc_h_matrix:                   10.808     1.573   1.8% ||
    Apply H:                         9.235     9.031  10.1% |---|
     HMM T:                          0.204     0.204   0.2% |
   diagonalize:                      0.086     0.086   0.1% |
   rotate_psi:                       1.952     1.952   2.2% ||
  calc. matrices:                   26.119     7.745   8.7% |--|
   Apply H:                         18.374    17.982  20.2% |-------|
    HMM T:                           0.392     0.392   0.4% |
  diagonalize:                       0.771     0.771   0.9% |
  rotate_psi:                        3.861     3.861   4.3% |-|
 Density:                            5.956     0.000   0.0% |
  Atomic density matrices:           0.073     0.073   0.1% |
  Mix:                               1.007     1.007   1.1% |
  Multipole moments:                 0.005     0.005   0.0% |
  Pseudo density:                    4.871     4.870   5.5% |-|
   Symmetrize density:               0.000     0.000   0.0% |
 Hamiltonian:                        3.365     0.019   0.0% |
  Atomic:                            1.245     0.495   0.6% |
   XC Correction:                    0.749     0.749   0.8% |
  Calculate atomic Hamiltonians:     0.788     0.788   0.9% |
  Communicate:                       0.001     0.001   0.0% |
  Poisson:                           0.022     0.022   0.0% |
  XC 3D grid:                        1.291     1.291   1.4% ||
 Orthonormalize:                     0.277     0.001   0.0% |
  calc_s_matrix:                     0.052     0.052   0.1% |
  inverse-cholesky:                  0.002     0.002   0.0% |
  projections:                       0.160     0.160   0.2% |
  rotate_psi_s:                      0.062     0.062   0.1% |
Set symmetry:                        0.000     0.000   0.0% |
Other:                               1.154     1.154   1.3% ||
-----------------------------------------------------------
Total:                                        89.126 100.0%

Memory usage: 349.71 MiB
Date: Sat May  9 09:29:32 2026
