
  ___ ___ ___ _ _ _  
 |   |   |_  | | | | 
 | | | | | . | | | | 
 |__ |  _|___|_____|  25.7.0
 |___|_|             

User:   luis-ochoa@luis-pc
Date:   Wed May 20 00:58:03 2026
Arch:   x86_64
Pid:    814190
CWD:    /home/luis-ochoa/Documents/Vscode/py/dft
Python: 3.12.3
gpaw:   /home/luis-ochoa/Documents/Vscode/py/dft/.venv/lib/python3.12/site-packages/gpaw
_gpaw:  /home/luis-ochoa/Documents/Vscode/py/dft/.venv/lib/python3.12/site-packages/
        _gpaw.cpython-312-x86_64-linux-gnu.so
ase:    /home/luis-ochoa/Documents/Vscode/py/dft/.venv/lib/python3.12/site-packages/ase (version 3.28.0)
numpy:  /home/luis-ochoa/Documents/Vscode/py/dft/.venv/lib/python3.12/site-packages/numpy (version 2.4.4)
scipy:  /home/luis-ochoa/Documents/Vscode/py/dft/.venv/lib/python3.12/site-packages/scipy (version 1.17.1)
libxc:  5.2.3
units:  Angstrom and eV
cores: 7
OpenMP: False
OMP_NUM_THREADS: 1

Input parameters:
  convergence: {density: 0.0001,
                eigenstates: 1e-08,
                energy: 1e-06}
  kpts: {gamma: True,
         size: [6, 6, 6]}
  mixer: {backend: broyden,
          beta: 0.013,
          method: separate,
          nmaxold: 8,
          weight: 100.0}
  mode: {ecut: 450.00000000000006,
         name: pw}
  occupations: {name: fermi-dirac,
                width: 0.05}
  setups: {Sn: :s,3.5}
  xc: MGGA_X_R2SCAN+MGGA_C_R2SCAN

System changes: positions, numbers, cell, pbc, initial_charges, initial_magmoms 

Initialize ...

species:
  Sn:
    name: Tin
    id: d1329c6b410f1e0bd923643368775dcd
    Z: 50.0
    valence: 14
    core: 36
    charge: 0.0
    Hubbard: {U: 3.5,  # eV
              l: 0,
              scale: True}
    file: /home/luis-ochoa/.gpaw/gpaw-setups-24.11.0/Sn.PBE.gz
    compensation charges: {type: gauss,
                           rc: 0.38,
                           lmax: 2}
    cutoffs: {filter: 2.23,
              core: 2.35}
    projectors:
      #              energy  rcut
      - 5s(2.00)   -10.538   1.201
      - 5p(2.00)    -3.696   1.270
      - 4d(10.00)   -25.845   1.185
      -  s          16.674   1.201
      -  p          23.515   1.270
      -  d           1.367   1.185
  
    # Using partial waves for Sn as LCAO basis

  I:
    name: Iodine
    id: 91405a398e4dfe788ff04f57531604ec
    Z: 53.0
    valence: 7
    core: 46
    charge: 0.0
    file: /home/luis-ochoa/.gpaw/gpaw-setups-24.11.0/I.PBE.gz
    compensation charges: {type: gauss,
                           rc: 0.37,
                           lmax: 2}
    cutoffs: {filter: 2.06,
              core: 2.90}
    projectors:
      #              energy  rcut
      - 5s(2.00)   -17.382   1.164
      - 5p(5.00)    -7.088   1.164
      -  s           9.829   1.164
      -  p          20.123   1.164
      -  d           0.000   1.164
  
    # Using partial waves for I as LCAO basis

  C:
    name: Carbon
    id: 4aa54d4b901d75f77cc0ea3eec22967b
    Z: 6.0
    valence: 4
    core: 2
    charge: 0.0
    file: /home/luis-ochoa/.gpaw/gpaw-setups-24.11.0/C.PBE.gz
    compensation charges: {type: gauss,
                           rc: 0.20,
                           lmax: 2}
    cutoffs: {filter: 1.14,
              core: 1.14}
    projectors:
      #              energy  rcut
      - 2s(2.00)   -13.751   0.635
      - 2p(2.00)    -5.284   0.635
      -  s          13.461   0.635
      -  p          21.927   0.635
      -  d           0.000   0.635
  
    # Using partial waves for C as LCAO basis

  N:
    name: Nitrogen
    id: f7500608b86eaa90eef8b1d9a670dc53
    Z: 7.0
    valence: 5
    core: 2
    charge: 0.0
    file: /home/luis-ochoa/.gpaw/gpaw-setups-24.11.0/N.PBE.gz
    compensation charges: {type: gauss,
                           rc: 0.18,
                           lmax: 2}
    cutoffs: {filter: 1.11,
              core: 0.96}
    projectors:
      #              energy  rcut
      - 2s(2.00)   -18.583   0.603
      - 2p(3.00)    -7.089   0.529
      -  s           8.629   0.603
      -  p          20.123   0.529
      -  d           0.000   0.577
  
    # Using partial waves for N as LCAO basis

  H:
    name: Hydrogen
    id: d65de229564ff8ea4db303e23b6d1ecf
    Z: 1.0
    valence: 1
    core: 0
    charge: 0.0
    file: /home/luis-ochoa/.gpaw/gpaw-setups-24.11.0/H.PBE.gz
    compensation charges: {type: gauss,
                           rc: 0.15,
                           lmax: 2}
    cutoffs: {filter: 0.85,
              core: 0.53}
    projectors:
      #              energy  rcut
      - 1s(1.00)    -6.494   0.476
      -  s          20.717   0.476
      -  p           0.000   0.476
  
    # Using partial waves for H as LCAO basis

Reference energy: -752686.602241  # eV

Spin-paired calculation

Convergence criteria:
 Maximum [total energy] change in last 3 cyles: 1e-06 eV / valence electron
 Maximum integral of absolute [dens]ity change: 0.0001 electrons / valence electron
 Maximum integral of absolute [eigenst]ate change: 1e-08 eV^2 / valence electron
 Maximum number of scf [iter]ations: 333
 (Square brackets indicate name in SCF output, whereas a 'c' in
 the SCF output indicates the quantity has converged.)

Symmetries present (total): 4

  ( 1  0  0)  ( 1  0  0)  (-1  0  0)  (-1  0  0)
  ( 0  1  0)  ( 0 -1  0)  ( 0  1  0)  ( 0 -1  0)
  ( 0  0  1)  ( 0  0  1)  ( 0  0  1)  ( 0  0  1)

216 k-points: 6 x 6 x 6 Monkhorst-Pack grid + [1/12,1/12,1/12]
64 k-points in the irreducible part of the Brillouin zone
       k-points in crystal coordinates                weights
   0:     0.00000000    0.00000000    0.00000000          1/216
   1:     0.00000000    0.00000000    0.16666667          2/216
   2:     0.00000000    0.00000000    0.33333333          2/216
   3:     0.00000000    0.00000000    0.50000000          1/216
   4:     0.00000000    0.16666667    0.00000000          2/216
   5:     0.00000000    0.16666667    0.16666667          4/216
   6:     0.00000000    0.16666667    0.33333333          4/216
   7:     0.00000000    0.16666667    0.50000000          2/216
   8:     0.00000000    0.33333333    0.00000000          2/216
   9:     0.00000000    0.33333333    0.16666667          4/216
          ...
  63:     0.50000000    0.50000000    0.50000000          1/216

Wave functions: Plane wave expansion
  Cutoff energy: 450.000 eV
  Number of coefficients (min, max): 5406, 5520
  Pulay-stress correction: 0.000000 eV/Ang^3 (de/decut=0.000000)
  Using Numpy's FFT
  ScaLapack parameters: grid=1x1, blocksize=None
  Wavefunction extrapolation:
    Improved wavefunction reuse through dual PAW basis 

Occupation numbers: Fermi-Dirac:
  width: 0.0500  # eV
 

Eigensolver
   Davidson(niter=2) 

Densities:
  Coarse grid: 32*32*32 grid
  Fine grid: 64*64*64 grid
  Total Charge: 0.000000 

Density mixing:
  Method: separate
  Backend: broyden
  Linear mixing parameter: 0.013
  old densities: 8
  Damping of long wavelength oscillations: 100 

Hamiltonian:
  XC and Coulomb potentials evaluated on a 64*64*64 grid
  Using the MGGA_X_R2SCAN+MGGA_C_R2SCAN Exchange-Correlation functional
  External potential:
    NoExternalPotential
 

XC parameters: MGGA_X_R2SCAN+MGGA_C_R2SCAN with 2 nearest neighbor stencil

Memory estimate:
  Process memory now: 147.70 MiB
Attribute error: AttributeError("'BroydenBaseMixer' object has no attribute 'estimate_memory'")
Some object probably lacks estimate_memory() method
Memory breakdown may be incomplete
  Calculator: 18.12 MiB
    Density: 18.12 MiB
      Arrays: 6.50 MiB
      Localized functions: 11.62 MiB
      Mixer: 0.00 MiB

Total number of cores used: 7
Parallelization over k-points: 7

Number of atoms: 12
Number of atomic orbitals: 38
Number of bands in calculation: 37
Number of valence electrons: 54
Bands to converge: occupied

... initialized

Initializing position-dependent things.

Density initialized from atomic densities
Creating initial wave functions:
  37 bands from LCAO basis set

     .---------------.  
    /|               |  
   / |               |  
  /  |               |  
 Sn  |     H         |  
 |   | H I C    H    |  
 |   |H N     NH     |  
 |   |               |  
 I   .---------------.  
 |  /               /   
 | /               /    
 |/               /     
 *---------------*      

Atomic positions and initial magnetic moments

Positions:
   0 Sn     0.000000    0.000000   -0.272245    ( 0.0000,  0.0000,  0.0000)
   1 I      3.155000    0.000000   -0.903605    ( 0.0000,  0.0000,  0.0000)
   2 I      0.000000    3.155000   -0.197043    ( 0.0000,  0.0000,  0.0000)
   3 I      0.000000    0.000000    2.870514    ( 0.0000,  0.0000,  0.0000)
   4 C      3.155000    3.155000    3.690266    ( 0.0000,  0.0000,  0.0000)
   5 N      1.980165    3.155000    2.966298    ( 0.0000,  0.0000,  0.0000)
   6 N      4.329835    3.155000    2.966298    ( 0.0000,  0.0000,  0.0000)
   7 H      3.155000    3.155000    4.795747    ( 0.0000,  0.0000,  0.0000)
   8 H      1.397561    3.955316    3.323568    ( 0.0000,  0.0000,  0.0000)
   9 H      1.397561    2.354684    3.323568    ( 0.0000,  0.0000,  0.0000)
  10 H      4.912439    3.955316    3.323568    ( 0.0000,  0.0000,  0.0000)
  11 H      4.912439    2.354684    3.323568    ( 0.0000,  0.0000,  0.0000)

Unit cell:
           periodic     x           y           z      points  spacing
  1. axis:    yes    6.310000    0.000000    0.000000    32     0.1972
  2. axis:    yes    0.000000    6.310000    0.000000    32     0.1972
  3. axis:    yes    0.000000    0.000000    6.310000    32     0.1972

  Lengths:   6.310000   6.310000   6.310000
  Angles:   90.000000  90.000000  90.000000

Effective grid spacing dv^(1/3) = 0.1972

     iter     time        total  log10-change:
                         energy   eigst   dens
iter:   1 01:03:30  -114.997620
iter:   2 01:07:38  -116.631312   -0.95  -1.04
iter:   3 01:11:57  -116.563953   -1.80  -1.02
iter:   4 01:16:05  -116.271246   -2.31  -1.02
iter:   5 01:20:13  -115.014364   -1.36  -1.03
iter:   6 01:24:23  -114.921710   -1.54  -1.17
iter:   7 01:28:37  -114.964239   -2.31  -1.27
iter:   8 01:32:38  -115.238360   -2.01  -1.30
iter:   9 01:37:02  -115.602781   -1.64  -1.47
iter:  10 01:41:08  -115.468102   -2.54  -1.55
iter:  11 01:45:04  -115.451513   -3.10  -1.58
iter:  12 01:49:31  -115.470556   -3.19  -1.59
iter:  13 01:55:02  -115.671054   -1.87  -1.63
iter:  14 02:00:38  -115.724102   -2.27  -1.96
iter:  15 02:06:05  -115.735579   -2.72  -1.97
iter:  16 02:11:40  -115.710273   -2.89  -1.95
iter:  17 02:17:23  -115.680129   -2.81  -2.02
iter:  18 02:22:43  -115.678023   -3.96  -2.04
iter:  19 02:28:30  -115.676098   -5.19  -2.04
iter:  20 02:33:58  -115.680739   -5.02  -2.04
iter:  21 02:39:29  -115.679101   -6.12  -2.05
iter:  22 02:45:11  -115.682950   -5.37  -2.05
iter:  23 02:50:37  -115.686093   -5.01  -2.05
iter:  24 02:55:57  -115.699433   -4.18  -2.06
iter:  25 03:01:33  -115.781786   -2.74  -2.08
iter:  26 03:07:14  -115.778935   -3.45  -2.19
iter:  27 03:12:42  -115.839685   -2.86  -2.17
iter:  28 03:18:07  -115.916384   -2.51  -2.28
iter:  29 03:23:54  -115.917470   -3.03  -2.32
iter:  30 03:29:18  -115.916010   -3.39  -2.33
iter:  31 03:34:34  -115.898964   -4.46  -2.31
iter:  32 03:40:08  -115.891527   -4.88  -2.33
iter:  33 03:45:39  -115.916939   -3.78  -2.33
iter:  34 03:51:07  -115.921044   -4.33  -2.34
iter:  35 03:56:44  -115.883922   -3.65  -2.34
iter:  36 04:02:25  -115.900394   -4.86  -2.34
iter:  37 04:07:42  -115.912447   -4.41  -2.35
iter:  38 04:13:07  -115.937358   -3.66  -2.35
iter:  39 04:18:37  -115.950490   -3.79  -2.35
iter:  40 04:24:14  -115.977354   -3.40  -2.37
iter:  41 04:29:36  -116.015806   -3.05  -2.38
iter:  42 04:35:03  -116.017386   -3.61  -2.35
iter:  43 04:41:00  -115.985098   -3.68  -2.34
iter:  44 04:46:16  -115.991870   -5.06  -2.37
iter:  45 04:52:03  -115.989349   -5.64  -2.36
iter:  46 04:57:40  -115.991841   -5.92  -2.37
iter:  47 05:02:48  -115.993570   -5.43  -2.37
iter:  48 05:08:20  -115.991484   -6.37  -2.38
iter:  49 05:13:17  -115.979031   -4.33  -2.38
iter:  50 05:18:48  -116.012426   -3.58  -2.38
iter:  51 05:24:08  -116.036245   -3.46  -2.35
iter:  52 05:29:16  -116.047671   -3.68  -2.32
iter:  53 05:34:51  -116.072078   -3.29  -2.32
iter:  54 05:40:08  -116.068079   -3.94  -2.32
iter:  55 05:45:18  -116.111104   -2.92  -2.36
iter:  56 05:50:38  -116.198665   -2.20  -2.45
iter:  57 05:56:15  -116.204367   -2.69  -2.61
iter:  58 06:01:40  -116.204532   -3.21  -2.60
iter:  59 06:06:45  -116.206409   -3.60  -2.57
iter:  60 06:12:06  -116.195778   -4.55  -2.61
iter:  61 06:17:35  -116.234272   -2.97  -2.59
iter:  62 06:22:46  -116.257971   -3.09  -2.58
iter:  63 06:28:01  -116.293771   -2.79  -2.54
iter:  64 06:33:35  -116.239208   -3.39  -2.51
iter:  65 06:38:45  -116.238222   -4.03  -2.52
iter:  66 06:44:06  -116.194715   -2.98  -2.53
iter:  67 06:49:23  -116.195770   -3.49  -2.58
iter:  68 06:54:40  -116.209148   -4.61  -2.56
iter:  69 07:00:02  -116.135283   -2.51  -2.53
iter:  70 07:05:12  -116.171462   -3.99  -2.47
iter:  71 07:10:40  -116.205010   -3.28  -2.56
iter:  72 07:15:50  -116.237640   -2.99  -2.66
iter:  73 07:20:55  -116.247280   -3.26  -2.62
iter:  74 07:26:25  -116.293378   -2.67  -2.56
iter:  75 07:31:45  -116.290516   -3.27  -2.54
iter:  76 07:36:57  -116.233429   -3.10  -2.52
iter:  77 07:42:14  -116.238674   -3.90  -2.59
iter:  78 07:47:24  -116.187593   -2.73  -2.59
iter:  79 07:52:46  -116.189266   -3.31  -2.54
iter:  80 07:57:52  -116.200624   -4.26  -2.49
iter:  81 08:03:11  -116.184596   -3.67  -2.43
iter:  82 08:08:43  -116.216317   -3.57  -2.37
iter:  83 08:13:42  -116.246246   -3.12  -2.43
iter:  84 08:19:06  -116.325423   -2.29  -2.50
iter:  85 08:24:19  -116.346778   -2.59  -2.61
iter:  86 08:29:30  -116.330271   -3.49  -2.63
iter:  87 08:34:50  -116.355477   -3.19  -2.59
iter:  88 08:40:19  -116.295644   -3.19  -2.65
iter:  89 08:45:40  -116.323212   -4.18  -2.55
iter:  90 08:50:41  -116.299010   -3.73  -2.54
iter:  91 08:55:59  -116.369057   -2.85  -2.39
iter:  92 09:01:32  -116.509489   -1.96  -2.52
iter:  93 09:06:45  -116.444801   -3.31  -2.41
iter:  94 09:12:02  -116.480072   -3.12  -2.42
iter:  95 09:17:29  -116.433808   -3.62  -2.47
                                                                                                                                                                                                                                                                                                                                                                                                                                                                                                                                                                                                                                                                                                                                                                                                                                                                                                                                                                                                                                                                                                                                                                                                                                                                                                                                                                                                                                                                                                                                                                                                                                                                                                                                                                                                                                                                                                                                                                                                                                                                                                                                                                                                                                                                                                                                                                                                                                                                                                                                                                                                                                                                                                                                                                                                                                                                                                                                                                                                                                                                                                                                                                                                                                                                                                                                                                                                                                                                                                                                                                                                                                                                                                                                                                                                                                                                                                                                                                                                                                                                                                                                                                                                                                                                                              iter:  39 01:00:53  -116.159328   -3.57  -2.62
iter:  40 01:05:10  -116.171682   -4.78  -2.62
iter:  41 01:09:27  -116.172539   -4.90  -2.60
iter:  42 01:13:35  -116.280266   -2.11  -2.55
iter:  43 01:18:00  -116.251311   -3.48  -2.54
iter:  44 01:22:06  -116.269335   -3.37  -2.56
iter:  45 01:26:13  -116.264965   -4.02  -2.57
iter:  46 01:30:36  -116.237521   -3.68  -2.57
iter:  47 01:34:43  -116.245467   -5.11  -2.55
iter:  48 01:39:00  -116.223528   -3.57  -2.55
iter:  49 01:43:17  -116.243057   -4.23  -2.50
iter:  50 01:47:26  -116.238075   -5.05  -2.54
iter:  51 01:52:31  -116.237648   -5.67  -2.51
iter:  52 01:58:28  -116.238623   -4.59  -2.53
iter:  53 02:04:09  -116.261318   -3.61  -2.44
iter:  54 02:09:58  -116.310964   -2.77  -2.51
iter:  55 02:15:43  -116.329620   -2.93  -2.58
iter:  56 02:21:28  -116.229308   -2.55  -2.56
iter:  57 02:27:31  -116.264084   -4.18  -2.51
iter:  58 02:33:02  -116.279322   -4.10  -2.54
iter:  59 02:38:35  -116.282630   -4.35  -2.56
iter:  60 02:44:39  -116.248127   -3.48  -2.54
iter:  61 02:50:16  -116.235275   -3.50  -2.52
iter:  62 02:55:59  -116.175478   -2.59  -2.51
iter:  63 03:01:46  -116.167171   -3.01  -2.49
iter:  64 03:07:42  -116.231954   -3.00  -2.47
iter:  65 03:13:26  -116.281604   -2.61  -2.51
iter:  66 03:19:06  -116.281328   -3.21  -2.55
iter:  67 03:24:43  -116.290001   -3.38  -2.57
iter:  68 03:30:46  -116.265197   -4.03  -2.54
iter:  69 03:36:26  -116.264663   -4.78  -2.56
iter:  70 03:41:57  -116.221287   -3.06  -2.56
iter:  71 03:47:57  -116.305512   -2.78  -2.50
iter:  72 03:53:43  -116.369871   -2.39  -2.61
iter:  73 03:59:15  -116.316071   -3.63  -2.62
iter:  74 04:04:57  -116.464620   -1.98  -2.56
iter:  75 04:10:35  -116.536780   -2.16  -2.60
iter:  76 04:16:17  -116.522359   -2.82  -2.50
iter:  77 04:21:44  -116.475268   -3.85  -2.51
iter:  78 04:27:10  -116.678837   -2.03  -2.53
iter:  79 04:33:04  -116.524054   -3.02  -2.42
iter:  80 04:38:35  -116.640789   -2.76  -2.45
iter:  81 04:44:07  -116.379327   -1.99  -2.38
iter:  82 04:50:04  -116.676644   -2.01  -2.29
iter:  83 04:55:57  -116.975601   -1.52  -2.43
iter:  84 05:01:28  -116.844613   -2.78  -2.43
iter:  85 05:06:50  -117.276651   -1.55  -2.29
iter:  86 05:12:06  -117.412898   -1.71  -2.10
iter:  87 05:17:32  -116.878541   -1.93  -2.19
iter:  88 05:22:52  -116.364523   -1.30  -2.03
iter:  89 05:28:14  -116.268006   -1.30  -2.03
iter:  90 05:34:06  -116.062011   -1.12  -1.91
iter:  91 05:39:27  -114.921466   -0.75  -1.89
iter:  92 05:44:58  -114.410260   -1.41  -1.95
iter:  93 05:50:22  -114.454638   -1.58  -2.00
iter:  94 05:55:55  -114.494731   -2.46  -2.06
iter:  95 06:01:35  -114.295481   -1.93  -2.08
iter:  96 06:06:53  -114.261504   -2.74  -2.05
iter:  97 06:12:19  -114.237729   -3.22  -2.03
iter:  98 06:18:02  -114.756110   -2.13  -2.12
iter:  99 06:23:25  -115.700083   -0.87  -2.32
iter: 100 06:28:48  -115.446831   -2.59  -2.32
iter: 101 06:34:33  -115.699770   -1.88  -2.32
iter: 102 06:40:06  -115.815262   -2.10  -2.36
iter: 103 06:45:26  -115.885842   -2.34  -2.39
iter: 104 06:51:05  -115.963146   -2.32  -2.41
iter: 105 06:56:28  -115.994712   -2.69  -2.42
iter: 106 07:02:05  -116.035625   -2.65  -2.39
iter: 107 07:07:28  -116.092516   -2.54  -2.39
iter: 108 07:12:50  -116.062413   -3.77  -2.40
iter: 109 07:18:37  -116.083066   -3.58  -2.38
iter: 110 07:23:59  -116.227257   -1.69  -2.41
iter: 111 07:29:23  -116.349035   -1.63  -2.50
iter: 112 07:34:57  -116.407853   -1.95  -2.51
iter: 113 07:40:26  -116.467761   -2.11  -2.47
iter: 114 07:45:38  -116.418981   -3.45  -2.47
iter: 115 07:51:04  -116.608356   -1.93  -2.36
iter: 116 07:56:21  -116.459743   -2.89  -2.53
iter: 117 08:01:58  -116.321639   -2.27  -2.32
iter: 118 08:07:17  -116.264063   -2.22  -2.19
iter: 119 08:12:27  -116.119994   -1.63  -2.20
iter: 120 08:18:08  -116.404751   -1.66  -2.18
iter: 121 08:23:16  -117.096976   -0.59  -2.25
iter: 122 08:28:36  -116.795478   -2.24  -2.47
iter: 123 08:34:10  -116.385841   -1.66  -2.34
iter: 124 08:39:35  -116.353891   -1.93  -2.42
iter: 125 08:45:09  -116.331537   -2.14  -2.39
iter: 126 08:50:27  -116.427783   -3.09  -2.14
iter: 127 08:55:45  -116.965522   -1.05  -2.41
iter: 128 09:01:22  -120.557630   +0.21  -2.32
iter: 129 09:06:40  -117.996204   -1.48  -1.87
iter: 130 09:12:06  -115.470018   -0.20  -1.90
iter: 131 09:17:47  -115.728568   -1.15  -1.53
